LAMMPS data file via write_data, version 23 Jun 2022, timestep = 600000

23200 atoms
4 atom types
12800 bonds
1 bond types
6400 angles
1 angle types

0 200 xlo xhi
0 57.73460575986499 ylo yhi
0 57.73325502235807 zlo zhi
0 0 -0.0014764801370566842 xy xz yz

Masses

1 22.9898
2 35.453
3 16
4 1.01

Atoms # full

18337 4779 4 0.41 58.66760132016946 3.7175454734741376 20.36731762944338 0 1 4
19763 5255 3 -0.82 64.66183512353479 6.547821396452524 4.656594642954968 0 1 0
13176 3059 4 0.41 60.715466418393184 1.426003153071731 2.5894378577728703 0 -2 1
15450 3817 4 0.41 64.14537611625263 6.484920218461748 13.816912991766866 0 1 1
6630 877 4 0.41 56.73546429172836 6.245464253292777 22.09688511968947 0 -1 0
15780 3927 4 0.41 59.84573590063689 4.94081554274581 14.71590968250906 0 1 -1
4608 203 4 0.41 59.00882897822528 8.400256585643488 1.6090324380122545 0 2 0
12829 2943 4 0.41 62.09422272929432 1.7420090668090187 17.14046856936749 0 2 0
21419 5807 3 -0.82 58.95273685366289 9.07243506771801 25.59220987253731 0 1 0
21509 5837 3 -0.82 61.742145456467604 9.897601898043833 19.426398585090595 0 2 -3
15347 3783 3 -0.82 63.11630644945729 12.382098358962487 18.483479016169476 0 2 -1
12990 2997 4 0.41 57.19584374120403 10.238535820832448 22.86450311592409 0 0 0
22344 6115 4 0.41 55.05803987208314 8.599200684014559 20.015875365054836 0 0 1
8352 1451 4 0.41 60.523373886996964 6.657604611370002 17.931534043386176 0 0 0
11995 2665 4 0.41 60.22054683018102 0.05357173109616878 22.48244310549229 0 1 0
9611 1871 3 -0.82 55.69948868861893 1.9053306998484123 28.73166157475171 0 2 -1
19207 5069 4 0.41 60.33483612821288 1.2780446591368806 24.3941359205994 0 1 1
10723 2241 4 0.41 59.95627988402652 1.6628891732263373 15.594328976917645 0 0 1
8869 1623 4 0.41 60.23433673632454 10.682190125715259 13.651385403181898 0 -1 2
22871 6291 3 -0.82 63.54149979867687 9.552758331157348 1.9911680134377352 0 0 1
11994 2665 4 0.41 61.64531047988873 0.5824182781972258 21.69460276386594 0 1 0
18390 4797 4 0.41 65.64829032991038 10.817906779383971 10.478664977486108 0 -1 1
14634 3545 4 0.41 60.72282778752497 7.433739159374319 8.860997308783736 0 0 1
22908 6303 4 0.41 62.119255868084956 0.2866443110165501 26.74048511207304 0 0 -1
11663 2555 3 -0.82 64.40901365289092 2.8502588240186078 1.7143310277093433 0 -1 2
11664 2555 4 0.41 64.61253519820454 3.442300152535639 0.87027167954423 0 -1 2
7561 1187 4 0.41 54.60877524306118 6.615967232056621 22.158011039824196 0 0 0
21199 5733 4 0.41 62.25178552550531 12.809236741139372 9.100896462409034 0 0 0
10975 2325 4 0.41 63.09627933108193 2.3166079159248514 2.783452611996498 0 -4 0
19356 5119 4 0.41 63.77516462009558 1.6333533258814874 11.9259290750786 0 -1 3
19711 5237 4 0.41 57.19506613366433 9.743767559741226 1.2112999810733047 0 1 1
9881 1961 3 -0.82 59.599377496596496 7.286520888766721 23.233404034073423 0 1 1
12253 2751 4 0.41 57.982104003618154 11.841080995486509 0.7646309654166721 0 -1 1
7997 1333 3 -0.82 59.563076568277786 12.234868512820162 18.370633529772753 0 0 -1
19045 5015 4 0.41 60.4264284917719 4.165034990741867 23.313343194129434 0 2 2
15407 3803 3 -0.82 63.394568877146185 5.259062409939044 24.09215629466504 0 -1 0
6653 885 3 -0.82 57.591640548254816 9.962465385324005 15.311000983953624 0 0 0
6655 885 4 0.41 57.00915227099406 10.75538787210031 15.215013765081359 0 0 0
21637 5879 4 0.41 57.60677088411216 2.8947702274497997 3.5901379257220625 0 -5 -2
18336 4779 4 0.41 57.77448573269016 5.11755148762641 20.735854153936085 0 1 4
17735 4579 3 -0.82 63.78497796811548 0.14159882153103215 0.23971645987538792 0 0 0
5010 337 4 0.41 64.12792903057878 8.082743472011447 20.246018681787522 0 0 2
8779 1593 4 0.41 62.991676481105586 9.488567575304177 26.266212818690146 0 1 1
14490 3497 4 0.41 65.19842217426687 0.8198989975183202 11.342683579491172 0 1 0
16746 4249 4 0.41 62.107240737015786 4.730873394212044 25.15610529177796 0 -1 1
12318 2773 4 0.41 60.47878583720019 10.010293548627226 28.545215667535917 0 0 2
11658 2553 4 0.41 63.133568291206466 10.077372379430413 28.5970777610825 0 3 -2
13723 3241 4 0.41 63.12021270524228 11.001903067902642 13.11006651897085 0 0 1
4159 53 4 0.41 62.00167391379288 3.33931776435041 0.21318273693515186 0 -1 -1
22343 6115 3 -0.82 54.91344524171269 7.553903058428669 20.23918702110319 0 0 1
21635 5879 3 -0.82 58.273443770710365 3.529389839194255 3.0768380991171393 0 -5 -2
21480 5827 4 0.41 60.45094659377494 12.116416973629951 4.485303121625989 0 1 1
4783 261 4 0.41 60.591653075760675 6.845941342390069 27.631585775497587 0 2 -2
16411 4137 4 0.41 55.07347797799509 10.51751072838769 27.523351871153494 0 1 1
9552 1851 4 0.41 56.76084765164022 8.248128487405463 16.288343152388485 0 0 1
11519 2507 3 -0.82 55.768771516628824 3.792841055365775 22.29932673233278 0 1 -2
4464 155 4 0.41 54.65823236795608 8.943470005508097 25.748888897458514 0 0 2
6049 683 4 0.41 63.241796463178915 9.556795917355679 23.096386188076156 0 0 -1
10140 2047 4 0.41 58.017817266534436 14.433066303247543 13.122607251176495 0 1 0
14310 3437 4 0.41 57.3480450531653 13.957734303853302 21.01511701665821 0 0 0
16038 4013 4 0.41 62.47830058556426 8.707289755660875 13.474521050505361 0 0 1
10991 2331 3 -0.82 63.47755638863746 8.111521171218719 10.699688736641006 0 0 -1
18811 4937 4 0.41 64.53178238904069 14.081048254631476 8.687907658113769 0 1 1
12559 2853 4 0.41 57.632384340240705 7.201430923515089 3.5524594419667075 0 -2 3
17250 4417 4 0.41 62.46796902509597 11.949090129951824 25.565771136630413 0 2 0
18809 4937 3 -0.82 65.40123682232567 13.745433401379673 8.272834704093247 0 1 1
8586 1529 4 0.41 60.615513759110094 9.282098285043663 0.41218604305797574 0 1 0
5118 373 4 0.41 56.947830926797806 1.6690128448881167 25.34183334325825 0 0 1
12828 2943 4 0.41 63.35130397233391 0.5377936307539978 17.311679414489976 0 2 0
7920 1307 4 0.41 62.36420003096759 13.878164049757633 19.03210326522074 0 -2 3
9839 1947 3 -0.82 63.129633158605316 1.3233405295303458 7.482583211408644 0 0 -1
19086 5029 4 0.41 65.35046393239699 2.387031623613245 18.85094121846113 0 1 0
10339 2113 4 0.41 62.54327845508483 7.168747852247277 18.025768525801876 0 0 0
18840 4947 4 0.41 59.82191208782708 2.9114469029593653 8.721925155717225 0 1 0
8088 1363 4 0.41 59.19404976208965 0.08861269253226217 28.059575942139467 0 -2 1
12827 2943 3 -0.82 63.08827180992612 1.4996567538945136 17.04451726489395 0 2 0
8585 1529 3 -0.82 60.8117491317284 9.671370241879611 1.3312594639250506 0 1 0
7998 1333 4 0.41 60.00160274562506 13.135151344696315 17.937416897493343 0 0 -1
6047 683 3 -0.82 63.577669903717 10.554937023059205 23.167170843852656 0 0 -1
9264 1755 4 0.41 61.064357188766394 13.576001703416761 26.160218892498108 0 0 1
12810 2937 4 0.41 64.28146908780475 1.8197676669749374 22.37184360338616 0 0 1
5933 645 3 -0.82 58.52925107052956 13.383908830341612 6.32039650139939 0 2 2
14491 3497 4 0.41 65.18473053004129 1.7259715923506305 9.93985315410691 0 1 0
13813 3271 4 0.41 56.89012560264059 8.157161547460925 12.94329308271312 0 0 0
11041 2347 4 0.41 60.45901649721688 1.7726185568150032 20.832567840810597 0 1 1
14389 3463 4 0.41 64.96365855265707 11.71987973171212 26.535272901926007 0 0 2
12366 2789 4 0.41 59.59227394890597 7.543485935975802 3.412070061222718 0 3 -4
6348 783 4 0.41 56.90653181682167 4.2218356460122095 17.056663619434413 0 2 0
12853 2951 4 0.41 57.55495820943509 4.012318465123132 27.75566842602377 0 1 0
7099 1033 4 0.41 62.48065663247894 6.9623170604562805 23.75322441503433 0 -2 0
4062 21 4 0.41 61.092655112662754 12.414181087079156 24.065308094897432 0 -1 0
22998 6333 4 0.41 59.28748127064893 3.349371960894518 12.06729853100415 0 -1 1
11161 2387 4 0.41 64.75596325038764 3.7915169844099292 21.810529062152682 0 -1 0
21227 5743 3 -0.82 55.610144884825985 7.939229326703865 24.99417142360084 0 1 0
22631 6211 3 -0.82 56.74291788064496 2.000018679872785 5.008289204174522 0 3 1
6048 683 4 0.41 62.810506334782744 11.201446282031826 23.024899792529144 0 0 -1
12941 2981 3 -0.82 60.34663085511126 9.647237539246836 17.078002084314445 0 -1 -1
13417 3139 4 0.41 64.99366983601352 10.876977424347157 15.835996711366409 0 2 0
20485 5495 4 0.41 65.60557780579364 13.88099853323244 6.3245039922944155 0 -2 2
11545 2515 4 0.41 62.88225096650672 2.9839386481369763 8.21674903697139 0 2 0
8351 1451 3 -0.82 59.857040556073315 6.663196760398582 17.123711908023758 0 0 0
6355 785 4 0.41 57.60312679610086 9.944160772373035 11.739010324051929 0 0 1
11129 2377 3 -0.82 60.465759864928415 2.0298129584283187 17.18402002242327 0 1 -2
19085 5029 3 -0.82 64.80961164303297 3.2310119637332426 18.740315411211903 0 1 0
21978 5993 4 0.41 63.91282483145242 1.5104482320824988 15.60331527204675 0 1 2
14406 3469 4 0.41 58.19452825609651 8.604947700980025 20.8591006949109 0 1 0
17328 4443 4 0.41 64.95384748871328 8.474497022696179 24.815158880520066 0 1 0
14873 3625 3 -0.82 61.7429667584274 7.422043778024383 14.281219628027738 0 1 0
10992 2331 4 0.41 62.71385104651205 8.13784630814649 9.982796263434384 0 0 -1
21420 5807 4 0.41 58.232365032575274 9.517095488131282 25.008012797312983 0 1 0
9553 1851 4 0.41 56.11483392891083 7.047424958598067 17.25209902909693 0 0 1
21503 5835 3 -0.82 58.06711900429795 7.06732227434271 6.867513203256647 0 -1 0
11976 2659 4 0.41 64.277359041511 4.634272884258762 7.7440527914249735 0 -1 0
6347 783 3 -0.82 57.23925440672352 5.061626294045046 17.432890324948378 0 2 0
11520 2507 4 0.41 56.37629225399433 3.582780741060845 21.5137225247819 0 1 -2
18071 4691 3 -0.82 59.494770124023624 11.364550332973048 9.606060099281626 0 0 -3
12365 2789 3 -0.82 60.099223093613006 7.319196629730638 4.284431210683579 0 3 -4
12942 2981 4 0.41 59.78782403364591 8.775002020738238 17.154208779200918 0 -1 -1
14407 3469 4 0.41 57.04558475365784 9.777116953254524 20.49672202944504 0 1 0
16303 4101 4 0.41 61.678202249385464 5.101177900592922 2.847007878134782 0 1 1
15485 3829 3 -0.82 60.52849274882311 14.395515788224282 16.608958987108355 0 0 0
8989 1663 4 0.41 65.08256529573504 4.6190067058582285 14.617404604379729 0 -2 2
12150 2717 4 0.41 56.31621480469662 11.837859920981366 7.483173947697618 0 0 2
21511 5837 4 0.41 61.267899856905906 9.602324472833155 18.596006962064394 0 2 -3
12851 2951 3 -0.82 56.858287556538876 4.290052318644959 27.04176494107276 0 1 0
21228 5743 4 0.41 55.722154064597696 7.390746307856094 25.86887775393597 0 1 0
21229 5743 4 0.41 55.465950426825216 7.271964792062337 24.205925371590798 0 1 0
6631 877 4 0.41 58.18190665744216 7.041932150562656 22.321476748132426 0 -1 0
15781 3927 4 0.41 60.921013119877934 4.942872085071558 15.87520189048799 0 1 -1
17323 4441 4 0.41 58.412749406584666 4.119176898022444 5.6863758996986595 0 0 1
12473 2825 3 -0.82 55.666286881518715 9.972762345656372 19.244036754284966 0 -1 -1
19519 5173 4 0.41 65.29670088918594 10.582351946751874 23.051693312824153 0 0 1
14736 3579 4 0.41 62.87240213829038 3.2641537425742007 13.022994325690078 0 1 1
18391 4797 4 0.41 64.72591909106376 9.527612475692875 10.140509932666005 0 -1 1
9871 1957 4 0.41 57.82020059579599 13.917970826418136 10.756523165781868 0 0 1
6877 959 4 0.41 63.34168038748557 6.686704442212133 28.8179445018375 0 0 0
16020 4007 4 0.41 61.817317601997104 13.011519502495032 13.861471756279865 0 1 0
7999 1333 4 0.41 59.64438456294799 11.436510066811515 17.81308602172388 0 0 -1
5011 337 4 0.41 62.89280212957501 8.998861331404667 20.34544534056281 0 0 2
11665 2555 4 0.41 64.76777707383076 1.9325158934736055 1.5383174115907357 0 -1 2
7560 1187 4 0.41 55.28354616461747 5.268627286258217 22.83536341493598 0 0 0
4584 195 4 0.41 63.797985298125695 12.626780887789124 0.548951595479634 0 0 -1
19355 5119 3 -0.82 63.11593486974773 1.6206846826895742 12.762565215332106 0 -1 3
5887 629 4 0.41 65.59529891866832 5.844688559095438 10.401432132715302 0 0 -2
12989 2997 3 -0.82 57.18269302533861 10.020541975467747 23.855993079044644 0 0 0
16301 4101 3 -0.82 61.743542843053135 5.2488622393995445 3.818758370564952 0 1 1
9929 1977 3 -0.82 59.270191012770624 4.9881686787072805 8.619028496585948 0 2 2
4026 9 4 0.41 63.086897684716035 14.261453160196423 10.784528512650901 0 -1 0
16302 4101 4 0.41 61.787872097195596 4.412737860986284 4.433463563209777 0 1 1
10565 2189 3 -0.82 62.09072215030012 3.123460800171077 5.596037680118391 0 0 0
16656 4219 4 0.41 60.16136645915285 5.752926368986436 11.52666412239574 0 2 -1
12709 2903 4 0.41 57.72783493548227 12.503883939918488 29.041277450890316 0 1 -1
18072 4691 4 0.41 58.87115312158259 10.727702121307566 9.094920112208033 0 0 -3
13812 3271 4 0.41 57.18077029155062 8.706886256645529 14.517710441999013 0 0 0
21504 5835 4 0.41 57.65120051990548 7.052527034459041 5.939848238775247 0 -1 0
16037 4013 3 -0.82 62.82617204533766 9.47088135297684 12.873918671396309 0 0 1
9523 1841 4 0.41 58.56279711599964 2.8086214159903413 24.61918979274097 0 0 1
11040 2347 4 0.41 60.42452536086228 3.430893581426683 20.97742534363059 0 1 1
12474 2825 4 0.41 55.76658920690926 11.029324659316929 19.240022019652326 0 -1 -1
17321 4441 3 -0.82 58.615925583189366 3.483639243159417 6.464641865140603 0 0 1
10338 2113 4 0.41 62.564040753947516 6.918387306970034 19.600089823867513 0 0 0
23171 6391 3 -0.82 62.75753285672133 12.550411519898764 10.56568843312021 0 1 1
16019 4007 3 -0.82 61.03280109778756 13.640667211537748 14.068331765325407 0 1 0
15348 3783 4 0.41 63.43513438909639 11.963946666930003 17.66381814068131 0 2 -1
12317 2773 3 -0.82 59.95852153542829 10.646709550597924 27.95534160940666 0 0 2
19746 5249 4 0.41 57.30106866135996 10.49855025060542 5.425719441077811 0 2 -1
19764 5255 4 0.41 64.49931073097974 7.581996519316705 4.538453598563306 0 1 0
6858 953 4 0.41 54.78119444048644 6.4289640579699805 27.991608752088485 0 2 1
12367 2789 4 0.41 60.71968462547418 6.493665079977124 4.16111689213223 0 3 -4
4063 21 4 0.41 60.787693160632536 12.301629266913102 22.438591616297604 0 -1 0
16657 4219 4 0.41 61.33175849081935 4.628096702458293 11.9555783185905 0 2 -1
19206 5069 4 0.41 60.782192496678036 2.65597278848656 25.24658863511276 0 1 1
22632 6211 4 0.41 55.84431456803917 1.5205040781471237 5.204696214059334 0 3 1
17304 4435 4 0.41 62.66822340248219 14.322510070473008 2.5631182702458397 0 -2 1
19747 5249 4 0.41 57.49731664372698 9.240649527492149 4.454447306748249 0 2 -1
14677 3559 4 0.41 59.916553376024225 11.988162877638024 20.050294599096155 0 2 -1
17629 4543 4 0.41 61.25367052314083 14.26421883364824 5.226464982355709 0 1 -2
12893 2965 3 -0.82 60.76843677649124 6.96788901016496 6.850791578771454 0 2 3
9870 1957 4 0.41 58.11291069605148 12.584019578616743 9.764878792745693 0 0 1
12809 2937 3 -0.82 64.99012268441116 2.5525709555593252 22.642698431069043 0 0 1
8160 1387 4 0.41 63.99454087382273 4.789064964722987 11.739355462594247 0 0 3
21510 5837 4 0.41 61.290534114972125 10.547154990241944 20.158194622257355 0 2 -3
18335 4779 3 -0.82 57.877182823074904 4.289737951521568 20.086751873291146 0 1 4
17623 4541 4 0.41 56.3440129826307 3.1392516655787945 14.549910978134301 0 -3 -1
19709 5237 3 -0.82 57.771397889542854 10.110038152101657 0.45845462225151146 0 1 1
19254 5085 4 0.41 60.500287869379136 9.963225499248123 7.4130365891995 0 0 -1
7559 1187 3 -0.82 55.16272249460011 6.297502300595347 22.935164357397724 0 0 0
22032 6011 4 0.41 63.98389379865158 0.4145264196788356 4.830930344619615 0 0 2
15779 3927 3 -0.82 60.87234778426597 4.8897372092196605 14.894337943789747 0 1 -1
6876 959 4 0.41 63.33931168512804 7.833917795979315 27.645047774664295 0 0 0
4609 203 4 0.41 58.62400901293371 6.782560593461584 1.3839140791660756 0 2 0
16039 4013 4 0.41 63.06188088682268 9.130525575475922 11.938817012499369 0 0 1
20483 5495 3 -0.82 65.4656960203796 14.107589906851961 5.313533193976747 0 -2 2
17621 4541 3 -0.82 56.40623547271579 2.880060945057126 15.513227243343275 0 -3 -1
11039 2347 3 -0.82 60.42604515320976 2.6848353031438745 20.237539468041767 0 1 1
14131 3377 4 0.41 57.56996234952388 6.139663593493304 14.284693334026839 0 -2 0
18841 4947 4 0.41 59.99465169823708 1.4937524998365366 8.043688422971703 0 1 0
9265 1755 4 0.41 59.73327213295124 12.574706412951956 26.062518631753612 0 0 1
4607 203 3 -0.82 58.484041398621 7.600830627641065 1.988694252314332 0 2 0
5657 553 3 -0.82 65.54527791631054 6.281581204075449 25.860863947354932 0 1 -1
13811 3271 3 -0.82 57.19179566236353 7.890411504028244 13.903411984574813 0 0 0
21481 5827 4 0.41 60.89722009123321 11.848459223865303 6.024388892742444 0 1 1
14129 3377 3 -0.82 58.13306089670496 5.34482238429352 14.53719695956804 0 -2 0
17118 4373 4 0.41 56.398429186476996 7.754093551069683 28.972084347360234 0 1 -1
8447 1483 3 -0.82 63.18958608631047 8.486871872862281 16.922720584995695 0 -1 1
8587 1529 4 0.41 61.77671045264441 9.632097847647854 1.625755665007755 0 1 0
16655 4219 3 -0.82 60.583996536840125 4.8350371662790215 11.299616424581103 0 2 -1
10721 2241 3 -0.82 59.485084469807646 1.1521764217121508 14.792246401851209 0 0 1
14850 3617 4 0.41 62.82843050056507 2.127847119454857 27.836434588000603 0 1 1
9551 1851 3 -0.82 56.4773005250977 8.033146194696323 17.297731213940374 0 0 1
14635 3545 4 0.41 60.492138853748514 7.82696245698791 10.539953629876393 0 0 1
21095 5699 3 -0.82 59.70993576186706 7.29577284374515 12.093720733628425 0 1 2
21432 5811 4 0.41 62.26209496535582 4.910071671722638 18.642367866328968 0 2 0
19255 5085 4 0.41 62.109862257472706 10.090356453190239 6.915152311539683 0 0 -1
9521 1841 3 -0.82 57.65706293700548 3.1869738865466206 24.77188416816755 0 0 1
12943 2981 4 0.41 60.28997883805627 9.984769150455218 16.12259942790748 0 -1 -1
20695 5565 4 0.41 64.43688689599085 13.223013190487793 24.985576698715683 0 1 -1
23172 6391 4 0.41 63.4825604664822 11.861646055756577 10.391659076357694 0 1 1
7098 1033 4 0.41 62.690049964980034 7.861949043008003 22.415944171363233 0 -2 0
21479 5827 3 -0.82 60.89539884893822 12.578538668670184 5.301939484954175 0 1 1
16771 4257 4 0.41 60.311088197651365 10.73750401200791 2.524779146926688 0 0 -1
16459 4153 4 0.41 60.5575038763115 1.1957409492697428 10.133617064846964 0 1 6
19205 5069 3 -0.82 60.17582571562183 2.327894915830647 24.475022010097437 0 1 1
14405 3469 3 -0.82 57.92749585248211 9.595730714238938 20.97932415680785 0 1 0
8159 1387 3 -0.82 64.03910961569851 5.286018580700515 10.840091811378338 0 0 3
5119 373 4 0.41 55.83959943889393 0.9568506393851616 26.40560501467149 0 0 1
19087 5029 4 0.41 63.947175650665436 2.8555451624257793 18.244823410547376 0 1 0
7213 1071 4 0.41 64.24430348890833 10.254268205296937 8.306428081373836 0 1 1
5117 373 3 -0.82 56.484897680807286 0.7892745039294968 25.63552731971447 0 0 1
23057 6353 3 -0.82 65.52758051542313 0.3952145558427728 7.141450647407815 0 1 0
5935 645 4 0.41 59.42413418339634 13.178952538217734 5.724019276625114 0 2 2
14875 3625 4 0.41 61.373839334078475 6.44317972598616 14.436311239473593 0 1 0
8449 1483 4 0.41 63.220725328757254 9.450248926928825 16.541821988219368 0 -1 1
12475 2825 4 0.41 56.04202494323266 9.572998942841187 18.36610827450963 0 -1 -1
14675 3559 3 -0.82 60.03400895701495 11.476324788087458 20.968463328410476 0 2 -1
7097 1033 3 -0.82 62.2291284905176 7.865593014306979 23.30726679808068 0 -2 0
16769 4257 3 -0.82 59.785899049100635 11.307111903479713 3.2470858945779506 0 0 -1
9449 1817 3 -0.82 65.07461792068278 2.400831142124622 25.825605022562687 0 -1 0
22704 6235 4 0.41 58.80042893455138 2.3887968532885338 28.639028199350317 0 1 -1
15486 3829 4 0.41 60.76197929083536 14.21309891988301 15.598975098863194 0 0 0
9263 1755 3 -0.82 60.72439319588076 12.609775923090185 25.930843163944523 0 0 1
6354 785 4 0.41 57.80584671857029 9.109710761092895 10.268336721529955 0 0 1
16410 4137 4 0.41 54.484696718252046 11.970310036382507 28.1200555681995 0 1 1
17249 4417 3 -0.82 63.4352906671163 12.010231801622655 25.311171705178154 0 2 0
12149 2717 3 -0.82 56.94954229416804 11.325985671783972 6.979657463820623 0 0 2
19253 5085 3 -0.82 61.19323421413859 10.59754441981982 7.045894625064199 0 0 -1
4465 155 4 0.41 53.28141485230101 8.844535554292575 26.499818575983515 0 0 2
17622 4541 4 0.41 56.182831403382934 1.8722172321967536 15.72810698158998 0 -3 -1
22997 6333 3 -0.82 58.57386553718812 2.9342349033639428 12.676366389298659 0 -1 1
22345 6115 4 0.41 55.48705190493896 6.971328397197165 19.628144192023395 0 0 1
21433 5811 4 0.41 61.913323860060856 3.4060808745737683 19.117577740143048 0 2 0
18073 4691 4 0.41 60.080221563574696 11.968928568080448 9.076720893959948 0 0 -3
10337 2113 3 -0.82 62.2390606003045 6.5154823550855845 18.753871629760013 0 0 0
6629 877 3 -0.82 57.55746586419308 6.564711893075287 21.628121701381318 0 -1 0
16745 4249 3 -0.82 61.53189413295878 4.488583632779844 25.911427947159577 0 -1 1
14838 3613 4 0.41 57.67260937938673 8.441422622072452 8.166873983988397 0 -1 -1
12557 2853 3 -0.82 56.91360426116567 7.302136625227715 4.3496442390704235 0 -2 3
8161 1387 4 0.41 63.65239542003361 4.715277567456886 10.080173715972666 0 0 3
22999 6333 4 0.41 58.16839897629007 3.7772785286984836 13.191738740533518 0 -1 1
12708 2903 4 0.41 59.188580856325416 12.373777824052985 28.210529781323324 0 1 -1
9882 1961 4 0.41 59.46244044343856 7.911801455699475 24.052386220341162 0 1 1
21505 5835 4 0.41 59.07847628742671 6.873994282876872 6.675053632883284 0 -1 0
15785 3929 3 -0.82 65.56956568228246 13.21213236766697 19.240240641525077 0 0 1
13415 3139 3 -0.82 63.99771462959832 10.898811812158094 15.663165676298524 0 2 0
13722 3241 4 0.41 64.08324408507394 12.39173704048601 13.021488887729479 0 0 1
10697 2233 3 -0.82 64.70810899620538 9.500755877859481 4.393799117669228 0 0 1
6041 681 3 -0.82 58.072694890986234 0.6358785683644778 18.136642403015134 0 1 0
17329 4443 4 0.41 64.7363686448136 10.157799192203349 24.9232293717864 0 1 0
14839 3613 4 0.41 57.75222785325358 10.091079853450962 7.810122575433931 0 -1 -1
12811 2937 4 0.41 65.139117890529 2.366777633682743 23.64306646476015 0 0 1
21636 5879 4 0.41 58.94327412261195 2.824721796889693 2.760889785235586 0 -5 -2
15449 3817 3 -0.82 65.00343034746923 6.480580174753668 14.33883070029406 0 1 1
21431 5811 3 -0.82 62.079431348342275 3.942456339338947 18.28147116834944 0 2 0
8765 1589 3 -0.82 60.43123062442221 10.483623104047052 12.023720990485682 0 1 0
8353 1451 4 0.41 58.96538283924374 6.35756590829361 17.502061142636425 0 0 0
7459 1153 4 0.41 56.76364731614426 14.317379462936088 2.3071790244446175 0 -1 3
12895 2965 4 0.41 60.56860761128215 7.149371687480214 5.839955980711046 0 2 3
16056 4019 4 0.41 64.7949342794303 5.55211413492016 16.50530171571382 0 0 0
12894 2965 4 0.41 61.80479839256186 7.090560838068929 6.939452384106067 0 2 3
6654 885 4 0.41 58.478638337066215 10.254659271896973 14.93874483658147 0 0 0
18593 4865 3 -0.82 65.1040696149785 0.14205242642568763 28.99202113456893 0 1 1
15461 3821 3 -0.82 59.53370913871261 0.9743797393412315 6.353760492873979 0 2 -1
4463 155 3 -0.82 54.14225643084845 9.401618557323635 26.54063488300096 0 0 2
11130 2377 4 0.41 60.65250884515877 2.9299449156951103 17.694421849403543 0 1 -2
16770 4257 4 0.41 59.0882714197414 10.754206627884201 3.7756653606975665 0 0 -1
9522 1841 4 0.41 57.18874172007213 3.2780483899905084 23.860185686915106 0 0 1
17009 4337 3 -0.82 57.967406788373246 0.5168341447156574 11.860310241201459 0 1 0
4583 195 3 -0.82 64.53329467635031 11.91044612967889 0.8460878111125244 0 0 -1
21096 5699 4 0.41 59.869643615902156 7.4555749488919725 13.05207267287483 0 1 2
14633 3545 3 -0.82 60.83170073169866 8.09626562545304 9.632689288068386 0 0 1
21197 5733 3 -0.82 61.524653871722315 12.976804026593511 8.340828717579623 0 0 0
9451 1817 4 0.41 64.07273184481434 2.65079552213634 26.113423188317416 0 -1 0
22633 6211 4 0.41 56.90976580669365 2.612630230940663 5.7542501066675165 0 3 1
13177 3059 4 0.41 59.404223676340436 0.39951052837300893 2.3442205682084145 0 -2 1
9883 1961 4 0.41 60.64377717346231 7.38244604142858 23.04625071795925 0 1 1
19043 5015 3 -0.82 60.30376325257647 4.352235655747065 22.28523200510511 0 2 2
14309 3437 3 -0.82 57.979448634464816 14.098818428176276 21.807906764790182 0 0 0
14676 3559 4 0.41 59.17488572475871 10.88632334794982 21.045302364921625 0 2 -1
11131 2377 4 0.41 59.81341756438552 1.7119439485226462 17.862305989748563 0 1 -2
18389 4797 3 -0.82 64.76232920786704 10.579877747100952 10.026841713173843 0 -1 1
19853 5285 3 -0.82 58.19527711683193 12.962609795354918 24.348377362552345 0 0 0
12991 2997 4 0.41 56.64468366001469 9.17558970128314 24.08609373666423 0 0 0
17327 4443 3 -0.82 64.54428116588996 9.222878626537796 25.342469573798663 0 1 0
17322 4441 4 0.41 58.785870018360676 3.954270437511489 7.3514835238893825 0 0 1
9930 1977 4 0.41 59.79115071378322 5.165969998875142 9.432491979229406 0 2 2
12319 2773 4 0.41 60.54386382115868 10.950269123476337 27.19167388280122 0 0 2
6042 681 4 0.41 57.35643056727301 1.2767031741635422 17.845523836002396 0 1 0
21097 5699 4 0.41 58.86191353637541 7.83250036378439 11.999472604427874 0 1 2
8087 1363 3 -0.82 59.19240011325887 0.7948822409150408 28.816324849996477 0 -2 1
12151 2717 4 0.41 57.59631095782519 12.021962261879782 6.691756699262098 0 0 2
12252 2751 4 0.41 58.71203621389483 12.608623205846158 2.05187369542884 0 -1 1
19745 5249 3 -0.82 57.84666442146427 10.166332423343595 4.627710179315555 0 2 -1
16458 4153 4 0.41 61.47426146221234 1.202972642520451 11.424274005969533 0 1 6
8868 1623 4 0.41 60.38264575099544 11.827187676010668 14.818515197794186 0 -1 2
15787 3929 4 0.41 64.61822664536095 12.791838752665466 19.1777287706526 0 0 1
10993 2331 4 0.41 63.518464842706535 7.131308370711046 10.921763259395087 0 0 -1
8767 1589 4 0.41 60.02425256635172 10.555142095065877 11.083097013655795 0 1 0
11975 2659 3 -0.82 65.22647148499242 5.025200371822506 7.787078762296538 0 -1 0
12251 2751 3 -0.82 58.2165807534475 12.740650872119566 1.1897927636784604 0 -1 1
15349 3783 4 0.41 62.47135215378839 11.74051108486929 18.982886455230737 0 2 -1
12558 2853 4 0.41 56.22394310925595 6.5866154073785355 4.2635610074727435 0 -2 3
7211 1071 3 -0.82 64.3193643309664 10.167021550913933 7.281415699766909 0 1 1
12707 2903 3 -0.82 58.38750475095308 13.001836352335687 28.41767465471517 0 1 -1
21979 5993 4 0.41 65.20255734173091 2.3121880070466725 14.970862687990476 0 1 2
9931 1977 4 0.41 58.55967517334947 5.7060259066161905 8.502311558252286 0 2 2
6353 785 3 -0.82 57.71449892914546 9.053130371212829 11.278597794097308 0 0 1
21421 5807 4 0.41 59.14275774488007 9.55133202536729 26.49178340889126 0 1 0
4782 261 4 0.41 59.794552776571976 7.606888633675798 26.486081523938594 0 2 -2
16409 4137 3 -0.82 55.137676519752596 11.199263006643227 28.285659169278166 0 1 1
4061 21 3 -0.82 61.48798394749962 12.472860785249264 23.12021313660518 0 -1 0
10703 2235 3 -0.82 63.57471273661795 0.2934118781572221 21.911685005726525 0 -1 0
14275 3425 4 0.41 65.29879176600141 6.975703529635513 18.438617541903096 0 2 1
11160 2387 4 0.41 64.84982333378885 4.4066838140753 20.266671940946537 0 -1 0
14837 3613 3 -0.82 57.880676158387146 9.338793646515168 8.575714367343311 0 -1 -1
15462 3821 4 0.41 59.010828787722815 0.36329128533021093 5.711620675061532 0 2 -1
21198 5733 4 0.41 61.345686973884526 12.022133713490236 7.946604943508946 0 0 0
4157 53 3 -0.82 61.889860663478814 4.137222007343121 0.87413786087382 0 -1 -1
14130 3377 4 0.41 57.89166909943193 5.107258858838421 15.483310300999582 0 -2 0
17251 4417 4 0.41 63.32656160518728 11.31427940605967 24.54337639534352 0 2 0
8777 1593 3 -0.82 62.35810062923252 9.287305908914131 27.025455131709947 0 1 1
13685 3229 3 -0.82 56.75062094607324 12.569265704355193 19.070746982782303 0 -1 -2
4722 241 4 0.41 63.807182997497506 8.359689731827174 7.437401118275256 0 1 3
23173 6391 4 0.41 62.68291547573892 12.449860963627083 11.593900645144139 0 1 1
21654 5885 4 0.41 65.21340133310093 6.847109227677556 0.1867346361526067 0 0 1
15408 3803 4 0.41 64.16565528898447 5.307399555075278 24.712656750280736 0 -1 0
7212 1071 4 0.41 65.1749947016536 10.738967942052145 7.1370406938149 0 1 1
8867 1623 3 -0.82 59.99294712351282 10.898978767424065 14.633171394551816 0 -1 2
11993 2665 3 -0.82 60.62382216151874 0.5373163687444367 21.695708003299966 0 1 0
17010 4337 4 0.41 58.09412920788598 1.4642310464267196 12.162500006104391 0 1 0
21653 5885 3 -0.82 64.80334824935031 7.784891740462742 0.17628356287047592 0 0 1
19044 5015 4 0.41 60.044450455017206 5.322549285881671 22.368363840222298 0 2 2
22872 6291 4 0.41 63.98080284858175 8.826982057807703 1.4707364391959137 0 0 1
22703 6235 3 -0.82 58.644698384940575 3.420310720411724 28.879683123063632 0 1 -1
6017 673 3 -0.82 58.177809036939095 5.057005362481052 0.8017719479167498 0 2 0
6349 783 4 0.41 57.49805888746654 4.874567505760759 18.40100355425447 0 2 0
11543 2515 3 -0.82 62.90396967549916 4.0396185156804 8.230187035581856 0 2 0
16747 4249 4 0.41 61.212245838378735 5.32643247881819 26.4153000729686 0 -1 1
14737 3579 4 0.41 62.09155004655547 4.524883100896382 13.821446737074734 0 1 1
4585 195 4 0.41 64.13143935230715 11.208138673828428 1.5060151058336426 0 0 -1
10699 2233 4 0.41 64.80400109741777 9.606383445462054 5.439654093290223 0 0 1
5009 337 3 -0.82 63.39852619527845 8.340064283803331 20.895390094452402 0 0 2
20484 5495 4 0.41 65.09662855227765 13.311133035592285 4.828887248241598 0 -2 2
9097 1699 4 0.41 62.14781653283394 14.126721888012472 23.08272357231573 0 0 0
15409 3803 4 0.41 63.7551227771046 5.0159466073894015 23.24171920657948 0 -1 0
9612 1871 4 0.41 56.30447374977062 2.4088104087605124 28.08721171218235 0 2 -1
13416 3139 4 0.41 63.80829008389283 11.270783390782514 14.79045845143019 0 2 0
4723 241 4 0.41 64.1975842411719 6.786930349678025 7.852628406724751 0 1 3
8766 1589 4 0.41 60.99787822133942 9.690025437953087 12.058827098104011 0 1 0
19854 5285 4 0.41 58.07542535593831 13.321019167870142 23.402874753353867 0 0 0
5658 553 4 0.41 64.82256626042185 6.476619200374695 26.523408591163825 0 1 -1
10974 2325 4 0.41 62.450454836704225 2.1071645133543004 4.340945678016924 0 -4 0
11544 2515 4 0.41 62.03079559778012 4.543163453924511 8.180945918036246 0 2 0
11521 2507 4 0.41 54.852461322099934 3.478083448041715 21.919583526885443 0 1 -2