LAMMPS data file via write_data, version 23 Jun 2022, timestep = 500000

13824 atoms
4 atom types
0 bonds
1 bond types
0 angles
1 angle types

0 69.36675964225992 xlo xhi
0 69.36675964225992 ylo yhi
0 69.36675964225992 zlo zhi
0 0 0 xy xz yz

Masses

1 22.98977
2 35.453
3 16
4 1.01

Atoms # full

1 0 1 1 1.2955262164936578 1.5870834724553287 1.5857865927537746 0 0 0
1153 0 1 1 1.5575401826866324 1.4288586542963222 7.286119659747183 0 0 0
2305 0 1 1 1.4906702146910324 1.5258564451313805 13.014548116334936 0 0 0
97 0 1 1 1.598160360054038 7.224113297842424 1.501246343187845 0 0 0
1249 0 1 1 1.3358657087237507 7.222157179590757 7.31944189605654 0 0 0
2401 0 1 1 1.447859817544437 7.277138585016084 13.00789207654546 0 0 0
193 0 1 1 1.527456847524269 12.979048565367034 1.297190292557763 0 0 0
1345 0 1 1 1.420544429045746 13.08847915419712 7.200263766592404 0 0 0
2497 0 1 1 1.4989990457398483 12.887026662865532 13.104228715716223 0 0 0
9 0 1 1 7.249689312662153 1.478274508077442 1.4496011343119657 0 0 0
1161 0 1 1 7.192927063379527 1.3449210133459124 7.3221279805042165 0 0 0
2313 0 1 1 7.416070693912634 1.3816907845134967 12.921906089954465 0 0 0
105 0 1 1 7.302013939052642 7.249743282983005 1.6096280106924221 0 0 0
1257 0 1 1 7.2333532618099765 7.289381233159366 7.376235203595046 0 0 0
2409 0 1 1 7.253262433023631 7.359291988012506 12.797816448817018 0 0 0
201 0 1 1 7.318728336010863 13.13227494334109 1.4079375183575735 0 0 0
1353 0 1 1 7.39671385940757 12.931239434645594 7.177336857756616 0 0 0
2505 0 1 1 7.301745024977954 13.142828676658727 12.889039775080184 0 0 0
17 0 1 1 12.779948661365495 1.4550002793159127 1.422037307091765 0 0 0
1169 0 1 1 12.924069778256102 1.4876342886282592 7.1212925054508585 0 0 0
2321 0 1 1 12.994429608639113 1.5117272381604425 12.884336513018317 0 0 0
113 0 1 1 12.985141417671132 7.248721871661254 1.3706601946889505 0 0 0
1265 0 1 1 12.79271516755574 7.180485786889246 7.035881706341945 0 0 0
2417 0 1 1 13.196803259982884 7.237512581351084 12.938734885020702 0 0 0
209 0 1 1 12.986100430991645 13.086819190203059 1.3163108646617054 0 0 0
1361 0 1 1 13.115544181255512 12.872191340010467 7.149079810425361 0 0 0
2513 0 1 1 13.121560976421309 13.006473590828275 12.564614394690528 0 0 0
2 0 2 -1 4.212888015741772 1.5331142573392655 1.4088923049368243 0 0 0
1154 0 2 -1 4.274261087873828 1.4856252700202726 7.332993582340183 0 0 0
2306 0 2 -1 4.378550054918721 1.377552690064117 12.989121351925093 0 0 0
98 0 2 -1 4.3872554443928165 7.25851958556483 1.4413611811678977 0 0 0
1250 0 2 -1 4.116290487250956 7.443387038053143 7.203842431124685 0 0 0
2402 0 2 -1 4.493322479006131 7.30613655989928 12.908644158092764 0 0 0
194 0 2 -1 4.235785377079572 13.061665577252679 1.559871816120999 0 0 0
1346 0 2 -1 4.4828523867303485 13.026979889928413 7.324732776399174 0 0 0
2498 0 2 -1 4.322226544015369 12.921530337687859 12.87736563499326 0 0 0
10 0 2 -1 10.004108573889212 1.3671063358451143 1.3643833256996245 0 0 0
1162 0 2 -1 10.026237649795993 1.434372174676736 7.243685591018672 0 0 0
2314 0 2 -1 10.14795188495891 1.4657545302759656 12.994026669445278 0 0 0
106 0 2 -1 10.062825405155564 7.3707809152630475 1.3554688663297354 0 0 0
1258 0 2 -1 9.95942563201199 7.339651166442392 7.178039692344233 0 0 0
2410 0 2 -1 10.12739021882949 7.4278009498021325 12.804391634108313 0 0 0
202 0 2 -1 10.225880904877606 13.115362171409505 1.353057359753444 0 0 0
1354 0 2 -1 10.191107475042308 13.016536548338054 7.1911282205858935 0 0 0
2506 0 2 -1 10.212401830770146 12.96373677854239 12.759891984498946 0 0 0
18 0 2 -1 15.57514204776474 1.3835926486912677 1.3297969588980776 0 0 0
1170 0 2 -1 15.743493906226732 1.3657334853624852 7.01451523499221 0 0 0
2322 0 2 -1 15.962917235293828 1.3653731100515398 13.04333462125973 0 0 0
114 0 2 -1 15.992002774705734 7.156769145898231 1.3872056950281577 0 0 0
1266 0 2 -1 15.83334968800515 7.110044906968632 7.2118223574578035 0 0 0
2418 0 2 -1 15.97265101268507 7.187966263377508 13.027624850003173 0 0 0
210 0 2 -1 16.072375240146542 12.984026337567549 1.4092735499251352 0 0 0
1362 0 2 -1 15.983862137234606 12.944826602106216 7.224229584691887 0 0 0
2514 0 2 -1 15.812114726886566 12.880072924087033 12.767209623902975 0 0 0
4 0 2 -1 1.5063867316272246 4.430596632415226 1.4914115954494336 0 0 0
1156 0 2 -1 1.4280820281002125 4.404331706782315 7.356148067044241 0 0 0
2308 0 2 -1 1.4831234119469507 4.360240609295947 13.115021964268452 0 0 0
100 0 2 -1 1.478187171641398 10.165978836499365 1.2337336417697695 0 0 0
1252 0 2 -1 1.3894493188682207 10.150710929709081 7.221134841264518 0 0 0
2404 0 2 -1 1.4845042365867422 10.08042239248683 13.009439859608344 0 0 0
196 0 2 -1 1.4799557126612872 15.800071300682369 1.4778900413288507 0 0 0
1348 0 2 -1 1.6485860041504858 15.931356388805096 7.174597681003781 0 0 0
2500 0 2 -1 1.4138065743030377 15.922888953086725 12.82770708993096 0 0 0
12 0 2 -1 7.191933920864357 4.206694319086094 1.4638430184184144 0 0 0
1164 0 2 -1 7.13083002646475 4.327444696670865 7.167016389871374 0 0 0
2316 0 2 -1 7.265794148981496 4.21841323051598 12.878742538246245 0 0 0
108 0 2 -1 7.321656960747909 10.041446390108504 1.453643289847724 0 0 0
1260 0 2 -1 7.3273088975499 10.15121078353171 7.1904507385011005 0 0 0
2412 0 2 -1 7.179858640057711 10.257793240128366 12.99246178047265 0 0 0
204 0 2 -1 7.151653056577123 15.8239761083505 1.3900838572978298 0 0 0
1356 0 2 -1 7.239750143161991 15.870085183300267 7.09561517195083 0 0 0
2508 0 2 -1 7.349309912976769 15.899055297037567 12.897014369484738 0 0 0
20 0 2 -1 12.721012134999413 4.31639367908039 1.6264876278847615 0 0 0
1172 0 2 -1 12.754186012176218 4.221412470014351 7.159566701069843 0 0 0
2324 0 2 -1 13.094449220749688 4.383810834180667 12.831704162363813 0 0 0
116 0 2 -1 13.051662704382352 10.188757322318146 1.50923115038302 0 0 0
1268 0 2 -1 12.932320582637685 10.105854561247005 7.180378748596495 0 0 0
2420 0 2 -1 13.054259657395228 10.003442500492675 13.026063864257914 0 0 0
212 0 2 -1 13.249457941127572 16.048664361516487 1.4726568621462506 0 0 0
1364 0 2 -1 13.130455276725783 16.013318830610938 7.301906892434783 0 0 0
2516 0 2 -1 13.051569769096986 15.907885812661366 12.985086573505603 0 0 0
3 0 1 1 4.361193516832574 4.2796962319781935 1.4214581252128502 0 0 0
1155 0 1 1 4.2465204835341 4.545111440655435 7.233305578640769 0 0 0
2307 0 1 1 4.558500163273216 4.381599168260129 12.867757622868165 0 0 0
99 0 1 1 4.411534887408601 10.147551968965804 1.29340400611117 0 0 0
1251 0 1 1 4.267260243878716 10.222257201885453 7.15323516524756 0 0 0
2403 0 1 1 4.3439497426469265 10.124067199108408 13.041048152248623 0 0 0
195 0 1 1 4.236947700983143 15.814915624343344 1.4883571491153522 0 0 0
1347 0 1 1 4.450240119814088 15.832625749975673 7.265524864594885 0 0 0
2499 0 1 1 4.32922921647396 15.733509033383047 12.971048302321359 0 0 0
11 0 1 1 10.007411703644559 4.293283622394475 1.4134157638115237 0 0 0
1163 0 1 1 10.026170167007436 4.458055416327995 7.1907144875804585 0 0 0
2315 0 1 1 9.924945072913394 4.417761694474856 12.817682774183334 0 0 0
107 0 1 1 9.992988705654229 10.21543881604331 1.2016202061728383 0 0 0
1259 0 1 1 10.096255327536088 10.16931017481056 7.2043807972182785 0 0 0
2411 0 1 1 9.994286527752633 10.166497050274055 12.89772499848931 0 0 0
203 0 1 1 10.337133183827904 15.81707157516197 1.385502624026985 0 0 0
1355 0 1 1 10.254261652507603 15.934588046292072 7.219191579295669 0 0 0
2507 0 1 1 10.084394820445564 16.005024119909024 13.09931510928055 0 0 0
19 0 1 1 15.729268181231019 4.3616437987050025 1.5346905019732184 0 0 0
1171 0 1 1 15.730604005837101 4.440807875604927 7.213481462549589 0 0 0
2323 0 1 1 15.913277521803392 4.297549756084827 12.916284004008785 0 0 0
115 0 1 1 15.822286269764419 10.042432728527444 1.567979520048082 0 0 0
1267 0 1 1 15.891153753893935 10.22592357525186 7.282136847976326 0 0 0
2419 0 1 1 15.910474808129996 10.08810340094657 12.978895749857639 0 0 0
211 0 1 1 16.182036465554113 15.779413760792792 1.138805989783753 0 0 0
1363 0 1 1 16.05460483691878 15.92743887685373 7.156145580779417 0 0 0
2515 0 1 1 15.756648138637969 15.825781804245562 12.91828053947985 0 0 0
6 0 2 -1 1.4750983518503362 1.6005367364124627 4.322254548217991 0 0 0
1158 0 2 -1 1.3106554086810784 1.4661463081980326 10.355107861994286 0 0 0
2310 0 2 -1 1.4949587475380057 1.5578370333570752 15.80179907704751 0 0 0
102 0 2 -1 1.4174085129666147 7.402782523937369 4.490100449609153 0 0 0
1254 0 2 -1 1.4121001268158213 7.194138873071003 10.177302232382795 0 0 0
2406 0 2 -1 1.7293657658346089 7.286109709746155 15.997405013295678 0 0 0
198 0 2 -1 1.3638015334681508 13.152241310710105 4.487583752094704 0 0 0
1350 0 2 -1 1.5532004526997183 13.101742835183144 10.163149877254043 0 0 0
2502 0 2 -1 1.4598451726536712 13.011757367145101 15.977945349327623 0 0 0
14 0 2 -1 7.140183204669239 1.573790685051026 4.443246307266777 0 0 0
1166 0 2 -1 7.194836260838999 1.4640943925839098 10.227640678903583 0 0 0
2318 0 2 -1 7.220437166912169 1.5829271552664572 15.943671644238838 0 0 0
110 0 2 -1 7.3586897555136535 7.276225081449575 4.463966422297779 0 0 0
1262 0 2 -1 7.078223853155229 7.3129529217672085 10.08065426326494 0 0 0
2414 0 2 -1 7.394675432379871 7.473814749642839 15.730975297845529 0 0 0
206 0 2 -1 7.3993905263526525 12.993603436998342 4.299707293167035 0 0 0
1358 0 2 -1 7.298493139278351 12.967768031337595 10.03390131499454 0 0 0
2510 0 2 -1 7.245356208908872 13.067707870899792 15.809007499073198 0 0 0
22 0 2 -1 12.873339993400116 1.5080871775529539 4.317292224510275 0 0 0
1174 0 2 -1 13.079120061129107 1.3180153593784136 9.982972527139124 0 0 0
2326 0 2 -1 12.847821678503223 1.4477735644846177 16.05255871877817 0 0 0
118 0 2 -1 12.903957611321802 7.369486285161296 4.162885288569677 0 0 0
1270 0 2 -1 13.200423429625706 7.108298081620355 9.97570705194073 0 0 0
2422 0 2 -1 13.104823516432386 7.223463578069722 16.085096744759394 0 0 0
214 0 2 -1 13.14282930229607 12.972444819283904 4.302879999232228 0 0 0
1366 0 2 -1 12.960467666851867 13.003391624704234 9.818230967433943 0 0 0
2518 0 2 -1 13.059665469159619 12.898744863666039 15.855089702916766 0 0 0
5 0 1 1 4.413066922938773 1.4960566056875768 4.245498629014799 0 0 0
1157 0 1 1 4.408702088185111 1.362520790768643 10.245018540582782 0 0 0
2309 0 1 1 4.477902660004775 1.794704650169227 15.781852524100511 0 0 0
101 0 1 1 4.416457455519891 7.305981929813128 4.441358502261963 0 0 0
1253 0 1 1 4.3474453830877655 7.3418061254413844 10.1492469875392 0 0 0
2405 0 1 1 4.5740097199770196 7.423275113252079 16.064775586734502 0 0 0
197 0 1 1 4.346277632361334 13.055210331985572 4.374030350816303 0 0 0
1349 0 1 1 4.299701594022188 13.010269476804455 10.098123236810215 0 0 0
2501 0 1 1 4.354788884426054 13.000878909699528 15.8458091727442 0 0 0
13 0 1 1 9.925086292855154 1.5251446829230302 4.606648664991515 0 0 0
1165 0 1 1 10.29025921878236 1.4568528221277117 10.23449181942901 0 0 0
2317 0 1 1 10.073859345905621 1.6511523811466708 15.894945478438004 0 0 0
109 0 1 1 10.201899161710875 7.61774252746499 4.318366075842316 0 0 0
1261 0 1 1 10.128678103709225 7.33111965951193 10.024509966590703 0 0 0
2413 0 1 1 10.118120794410288 7.415308236253218 16.093997058686753 0 0 0
205 0 1 1 10.210477740825567 12.976602959507899 4.393258102463503 0 0 0
1357 0 1 1 9.996904824588706 12.901263435739756 9.92653973533949 0 0 0
2509 0 1 1 10.081882174554206 13.033565018564232 15.861305997468312 0 0 0
21 0 1 1 15.818525686290792 1.4046775814881165 4.332078676152158 0 0 0
1173 0 1 1 15.90439794128011 1.3153854758824859 9.999263275647442 0 0 0
2325 0 1 1 15.575653405094236 1.5267547888370967 15.796595813917609 0 0 0
117 0 1 1 15.964016017489023 7.205708816836635 4.445442991013701 0 0 0
1269 0 1 1 15.9107163996159 7.133167621127837 10.145976666704195 0 0 0
2421 0 1 1 15.91796271649114 7.256450476210583 15.842288364120762 0 0 0
213 0 1 1 16.07579633686884 13.069892087875951 4.357452777275544 0 0 0
1365 0 1 1 16.02881734068522 13.057214103921206 9.89329728526551 0 0 0
2517 0 1 1 15.918249401740667 12.990335159919361 15.885836319684627 0 0 0
7 0 1 1 1.462474650336453 4.36311594481961 4.396827825426806 0 0 0
1159 0 1 1 1.6577243507853816 4.295816515188326 10.277327599518978 0 0 0
2311 0 1 1 1.6446927221203733 4.371535623159909 15.79528997797244 0 0 0
103 0 1 1 1.629985281431183 10.326641495502626 4.375612205895497 0 0 0
1255 0 1 1 1.3033195990498174 10.233080093794298 9.996687625578376 0 0 0
2407 0 1 1 1.5088083803609407 10.034278107983384 15.997212507343242 0 0 0
199 0 1 1 1.6067499397627254 15.934645432833857 4.366271772171454 0 0 0
1351 0 1 1 1.406604062431766 15.830520751119368 9.99625324955318 0 0 0
2503 0 1 1 1.3142003424474955 15.891420147538998 16.064817668209965 0 0 0
15 0 1 1 7.278377430080287 4.405750681376646 4.3649948532650376 0 0 0
1167 0 1 1 7.088222669687443 4.338913229529604 9.899818670675728 0 0 0
2319 0 1 1 7.375814487805775 4.392794263811815 15.846009428193717 0 0 0
111 0 1 1 7.2403430201710375 10.253086092793545 4.21073270776115 0 0 0
1263 0 1 1 7.149060573774579 10.226474581212262 10.142744431390433 0 0 0
2415 0 1 1 7.204206993050608 10.264049938519866 15.794512775454612 0 0 0
207 0 1 1 7.344212490064857 15.801798637601395 4.269350304558121 0 0 0
1359 0 1 1 7.250936921990491 15.866154388481736 9.79029827037022 0 0 0
2511 0 1 1 7.097100586977969 15.999961530219354 15.806433985471985 0 0 0
23 0 1 1 12.95027215221466 4.224107044914189 4.28826611295781 0 0 0
1175 0 1 1 12.950118606781757 4.326775376511868 9.9287699688092 0 0 0
2327 0 1 1 12.817935899313346 4.485632436273704 15.838338702231763 0 0 0
119 0 1 1 13.062310593901712 10.187560366808851 4.340263880766953 0 0 0
1271 0 1 1 12.800252849617568 10.253661814415338 10.173826370560795 0 0 0
2423 0 1 1 13.036465080211368 10.128459940236272 15.971802860755192 0 0 0
215 0 1 1 13.222107046729912 15.90088250833228 4.412621853543993 0 0 0
1367 0 1 1 12.939310826239462 15.842732796814754 10.11603899986197 0 0 0
2519 0 1 1 13.043200815168081 15.878250654876448 15.782470632841008 0 0 0
8 0 2 -1 4.294246532982403 4.26734467282621 4.421223500821539 0 0 0
1160 0 2 -1 4.435773073801012 4.384792365867012 10.045235880393655 0 0 0
2312 0 2 -1 4.559467106478992 4.562307838835913 15.957159569796506 0 0 0
104 0 2 -1 4.329932924747063 10.289522135595583 4.292528931284981 0 0 0
1256 0 2 -1 4.2304190669059505 10.171276984274126 10.063812520765259 0 0 0
2408 0 2 -1 4.454840197068321 10.23809264603679 16.045133836577698 0 0 0
200 0 2 -1 4.448059439908592 15.777312776525976 4.292030685212444 0 0 0
1352 0 2 -1 4.301675749164351 15.962189841802218 10.034432843371697 0 0 0
2504 0 2 -1 4.250897758695155 15.941277988772075 15.886653056560936 0 0 0
16 0 2 -1 10.000176590368001 4.554402624847877 4.298540644655103 0 0 0
1168 0 2 -1 10.064121359431613 4.540078072642143 9.900304091272009 0 0 0
2320 0 2 -1 10.042270811655566 4.63941294940777 15.945185933845917 0 0 0
112 0 2 -1 10.010297700676293 10.392927566774699 4.271673628577737 0 0 0
1264 0 2 -1 10.007422074154489 10.14214927434916 10.170277543257429 0 0 0
2416 0 2 -1 10.170696836133018 10.282644859338344 16.04648161346795 0 0 0
208 0 2 -1 10.187908027848652 15.886342975430574 4.31309800223959 0 0 0
1360 0 2 -1 10.152098542013436 15.894036952211223 10.030642222665387 0 0 0
2512 0 2 -1 10.233829992452815 15.846669612199141 15.937609607153346 0 0 0
24 0 2 -1 15.872086248297846 4.267804301246552 4.458306246061405 0 0 0
1176 0 2 -1 15.848470797716192 4.302719087177375 9.995547113912274 0 0 0
2328 0 2 -1 15.676702807467274 4.310253835957496 15.743285736375926 0 0 0
120 0 2 -1 15.822273336857075 10.162240174151407 4.350797484713759 0 0 0
1272 0 2 -1 15.931444141029642 10.006601194616144 10.037150902219114 0 0 0
2424 0 2 -1 15.785061202484089 10.090217935210918 15.83642386285934 0 0 0
216 0 2 -1 16.149926004735704 15.881756676551042 4.428277283922885 0 0 0
1368 0 2 -1 16.04585381852014 15.903448848863658 10.064729719548167 0 0 0
2520 0 2 -1 15.998128950772205 15.77560703476201 15.742786105578201 0 0 0
25 0 1 1 18.771594364193962 1.4543294358445609 1.440479133091478 0 0 0
1177 0 1 1 18.638764807742334 1.4312645838347584 7.2403396705899805 0 0 0
2329 0 1 1 18.67193223801463 1.5854369600147469 12.977769621062558 0 0 0
121 0 1 1 18.87674479479819 7.093888159654879 1.5494945829131972 0 0 0
1273 0 1 1 18.749599079823692 7.117332275588967 7.410027917884663 0 0 0
2425 0 1 1 18.66265935074383 7.148958337589732 12.855008706474576 0 0 0
217 0 1 1 18.826208917259596 12.862931131505789 1.4972513067092537 0 0 0
1369 0 1 1 18.755892153854813 13.02511006090661 7.4422496417966 0 0 0
2521 0 1 1 18.636682875578796 12.933050820718302 13.172118363452817 0 0 0
33 0 1 1 24.39202934064068 1.4287012841523437 1.3266605598649694 0 0 0
1185 0 1 1 24.459074433889057 1.6256369631213419 6.964513094948888 0 0 0
2337 0 1 1 24.33559045744362 1.4242577649030843 13.017227856084762 0 0 0
129 0 1 1 24.525105019209928 7.356538159740982 1.522992164102869 0 0 0
1281 0 1 1 24.41624737319385 7.120551383820824 7.255737138243661 0 0 0
2433 0 1 1 24.55817179563121 7.235711244121326 13.13937843981942 0 0 0
225 0 1 1 24.54238860051551 12.954527766308626 1.1443342625232484 0 0 0
1377 0 1 1 24.668330442065493 12.968074607124457 7.173002811284666 0 0 0
2529 0 1 1 24.507002777827093 12.898606620516377 12.803420707726914 0 0 0
41 0 1 1 30.182384255042503 1.4234231910300776 1.3778414427244825 0 0 0
1193 0 1 1 30.37009541624913 1.4418411594163651 7.262356483354847 0 0 0
2345 0 1 1 30.280343855255662 1.4357597288400925 13.088566305463537 0 0 0
137 0 1 1 30.01136887748979 7.30092506104443 1.506162640062324 0 0 0
1289 0 1 1 30.194269118401003 7.194209094742894 7.19193971174751 0 0 0
2441 0 1 1 30.148976169416642 7.10803859418494 12.944121957278156 0 0 0
233 0 1 1 30.363395319498615 13.163898990112502 1.2590067466430115 0 0 0
1385 0 1 1 30.29542757901757 13.022893713590213 7.311998831755021 0 0 0
2537 0 1 1 30.36812074062482 13.018624571196826 12.989678908859984 0 0 0
26 0 2 -1 21.440078176225196 1.3317056310469346 1.3071169189819274 0 0 0
1178 0 2 -1 21.70698895996708 1.5078691822124894 7.253517226409602 0 0 0
2330 0 2 -1 21.560801072685305 1.4749550294252822 12.913095516733748 0 0 0
122 0 2 -1 21.675290113218818 7.368569421591114 1.5660953028685516 0 0 0
1274 0 2 -1 21.661676843563747 7.177682700438976 7.238530934073735 0 0 0
2426 0 2 -1 21.57776446390112 7.247557276123528 13.172811890936568 0 0 0
218 0 2 -1 21.563627971261663 12.918290817757217 1.2649886376368076 0 0 0
1370 0 2 -1 21.514021548884998 12.872767880124307 7.124793986075884 0 0 0
2522 0 2 -1 21.69945868751831 12.824783461834153 13.037836745289018 0 0 0
34 0 2 -1 27.190858097721264 1.504075700444092 1.219404906047736 0 0 0
1186 0 2 -1 27.48982268512108 1.484809833049213 7.219540151823742 0 0 0
2338 0 2 -1 27.321858416372883 1.4442306236671247 13.132785111630314 0 0 0
130 0 2 -1 27.36936196262863 7.379347730135272 1.5077480607027067 0 0 0
1282 0 2 -1 27.285560551755747 7.31551209862225 7.211807452742393 0 0 0
2434 0 2 -1 27.392868547320283 7.324501851684719 12.955316508573317 0 0 0
226 0 2 -1 27.49764863246041 12.998138832491609 1.323539944111626 0 0 0
1378 0 2 -1 27.414854589191194 12.978203723566168 7.240142418442379 0 0 0
2530 0 2 -1 27.543527599369625 13.011681603040447 13.024031083285779 0 0 0
42 0 2 -1 33.00884182117412 1.572598648254656 1.4692399569907275 0 0 0
1194 0 2 -1 33.212544296488495 1.4372328305089828 7.262181981431376 0 0 0
2346 0 2 -1 33.13862119223916 1.443139328461228 13.10410672593002 0 0 0
138 0 2 -1 32.9324635543426 7.174045336187489 1.5150619505782918 0 0 0
1290 0 2 -1 33.31776579467893 7.186365852443315 7.287894191469324 0 0 0
2442 0 2 -1 33.31070511592465 7.34072841137897 12.754262873339409 0 0 0
234 0 2 -1 33.26976364042097 13.005599475991055 1.3810523563464259 0 0 0
1386 0 2 -1 33.34932769376994 13.098764109088515 7.10615129326754 0 0 0
2538 0 2 -1 33.18689742529236 12.96470355238979 13.018044720618368 0 0 0
28 0 2 -1 18.394925349525963 4.1533377445509085 1.5015955334022375 0 0 0
1180 0 2 -1 18.66824107345891 4.211435754041976 7.104261105268984 0 0 0
2332 0 2 -1 18.75198139418274 4.301656743010415 13.069737135509145 0 0 0
124 0 2 -1 18.737377252580387 10.117955762148434 1.4745974332529286 0 0 0
1276 0 2 -1 18.819531146749977 9.968746289694456 7.4576882177783475 0 0 0
2428 0 2 -1 18.71276489998393 10.089163642828115 13.182247243237798 0 0 0
220 0 2 -1 18.92543611927303 15.862377513501402 1.331600931465956 0 0 0
1372 0 2 -1 18.967676601211885 15.817223998745007 7.173609340416746 0 0 0
2524 0 2 -1 18.917465898890494 15.810654911609982 13.202543629292004 0 0 0
36 0 2 -1 24.392252212703454 4.587026257450341 1.5666792703000798 0 0 0
1188 0 2 -1 24.506576746189445 4.347747825332863 7.178062032886932 0 0 0
2340 0 2 -1 24.46381719471092 4.383728309447418 12.940683408609235 0 0 0
132 0 2 -1 24.467285972475672 10.15097856104033 1.4758593357109517 0 0 0
1284 0 2 -1 24.522942302996828 10.046019829441482 7.132662382151506 0 0 0
2436 0 2 -1 24.651800524730657 10.16719073797565 13.143686671854512 0 0 0
228 0 2 -1 24.513171898279115 16.043211242238705 1.2608622884309009 0 0 0
1380 0 2 -1 24.616420880512873 15.776616984621366 7.17586278063789 0 0 0
2532 0 2 -1 24.560998824745184 15.704647058105014 13.104253578745746 0 0 0
44 0 2 -1 30.243359673872575 4.2528918213055045 1.574689670394108 0 0 0
1196 0 2 -1 30.39426475521095 4.354779894496627 7.12955994851271 0 0 0
2348 0 2 -1 29.982868213892836 4.262950817672328 13.017631929981235 0 0 0
140 0 2 -1 30.30833800941706 10.106613765477523 1.5398663377135497 0 0 0
1292 0 2 -1 30.286352732944927 10.177607676759388 7.154723485397261 0 0 0
2444 0 2 -1 30.40732519451141 9.901483437110175 12.942994314794731 0 0 0
236 0 2 -1 30.419868207361407 15.77288645582127 1.2561551686472066 0 0 0
1388 0 2 -1 30.343120218593654 15.769485546749241 6.964663809912795 0 0 0
2540 0 2 -1 30.33902110837462 15.853327732619732 13.1982716316427 0 0 0
27 0 1 1 21.522984046661634 4.313263899708591 1.493700534702958 0 0 0
1179 0 1 1 21.7734066121096 4.472726539114177 7.177571775703805 0 0 0
2331 0 1 1 21.526182095535663 4.196862526361745 13.065607351853101 0 0 0
123 0 1 1 21.69245996528932 10.248393679396363 1.341911763945026 0 0 0
1275 0 1 1 21.734463530900634 10.137827780814256 7.13312560453536 0 0 0
2427 0 1 1 21.613893322734256 10.18403887153896 13.13791371805804 0 0 0
219 0 1 1 21.590472922417103 15.711327292216918 1.35102546472425 0 0 0
1371 0 1 1 21.843278406859014 15.799932951788549 7.267353352881854 0 0 0
2523 0 1 1 21.7515203190128 15.538309514543664 13.32826115347802 0 0 0
35 0 1 1 27.551271307998523 4.359402719405417 1.6146404290181686 0 0 0
1187 0 1 1 27.610930874053082 4.284324522381284 7.318626424787346 0 0 0
2339 0 1 1 27.2961353265898 4.298720569507488 12.84959779458482 0 0 0
131 0 1 1 27.3934955615983 10.1397390348519 1.5417729465186873 0 0 0
1283 0 1 1 27.4447818246111 10.18092083259453 7.258290789774843 0 0 0
2435 0 1 1 27.540029242623806 10.153527609952151 13.11262177486961 0 0 0
227 0 1 1 27.678335706100544 15.75573258748798 1.3184765084013763 0 0 0
1379 0 1 1 27.40297761494384 15.993891510609144 7.098123605822314 0 0 0
2531 0 1 1 27.487770673041517 15.887471459458357 12.99876185328802 0 0 0
43 0 1 1 32.94735265340938 4.324175783492421 1.400455605157481 0 0 0
1195 0 1 1 33.341220588296274 4.35594246633598 7.405236729591492 0 0 0
2347 0 1 1 33.10422821038791 4.483168315246128 13.082346681930803 0 0 0
139 0 1 1 33.027976608059774 10.088479687004618 1.5356006517053324 0 0 0
1291 0 1 1 33.22346081683925 10.0289050266312 7.035212483300764 0 0 0
2443 0 1 1 33.21838651993317 10.146011296051523 13.056046246718967 0 0 0
235 0 1 1 33.30286006223913 15.978204155111012 1.1583260309246033 0 0 0
1387 0 1 1 33.06000818578601 15.929519358249783 7.0801667031671265 0 0 0
2539 0 1 1 33.28897749854313 15.84899967254232 13.044809118336286 0 0 0
30 0 2 -1 18.66203350463637 1.4324218405126077 4.203822816985006 0 0 0
1182 0 2 -1 18.75988297937857 1.4289772158980225 9.958776272507812 0 0 0
2334 0 2 -1 18.62985409920895 1.525075581205823 15.80118042557137 0 0 0
126 0 2 -1 18.745634551776956 7.217440908216856 4.336967115741589 0 0 0
1278 0 2 -1 18.650937051451116 7.190442277913287 10.06397390050424 0 0 0
2430 0 2 -1 18.72973796909365 7.120685330044897 16.088530791180332 0 0 0
222 0 2 -1 18.842888542970137 12.810214432106513 4.235736734650865 0 0 0
1374 0 2 -1 18.87772457750668 12.95955306964925 10.271963538202876 0 0 0
2526 0 2 -1 19.04207318267293 12.898688684528173 15.964093666452824 0 0 0
38 0 2 -1 24.465677494782177 1.495395399340421 4.170422078375946 0 0 0
1190 0 2 -1 24.51423701728036 1.4864275390137192 10.077833771795511 0 0 0
2342 0 2 -1 24.6142382864058 1.302045099444967 15.912775143110032 0 0 0
134 0 2 -1 24.457826216338603 7.421838480353647 4.628722253894341 0 0 0
1286 0 2 -1 24.550024720755957 7.160114374208155 10.148609747455444 0 0 0
2438 0 2 -1 24.372040359951708 7.32773628559517 15.875016165695268 0 0 0
230 0 2 -1 24.590634779934614 13.053141913200031 4.192879430092633 0 0 0
1382 0 2 -1 24.481639331439734 12.969489784448385 10.05974407494793 0 0 0
2534 0 2 -1 24.498123000219532 13.070698341723155 15.80183735511847 0 0 0
46 0 2 -1 30.14235372054957 1.3284517923308397 4.275509457607041 0 0 0
1198 0 2 -1 30.347617744066 1.5063975620213668 10.164463250730673 0 0 0
2350 0 2 -1 30.2938327801608 1.5570639049154902 15.910897976530954 0 0 0
142 0 2 -1 30.187358853097393 7.260080107868812 4.379456978286968 0 0 0
1294 0 2 -1 30.438387694117278 7.1742378121686 10.00863844928416 0 0 0
2446 0 2 -1 30.341548848940132 7.242375323411136 15.76014001809216 0 0 0
238 0 2 -1 30.41432742990893 12.998832778638679 4.003196522423042 0 0 0
1390 0 2 -1 30.435336308543043 13.095691093604435 10.13139947959447 0 0 0
2542 0 2 -1 30.199538039332374 12.996140133000901 15.957516287503779 0 0 0
29 0 1 1 21.54132291237163 1.415682266977197 4.390244861561701 0 0 0
1181 0 1 1 21.635949188087668 1.361235123471857 10.051990394114698 0 0 0
2333 0 1 1 21.709067129253988 1.3155511971296234 15.906191228901172 0 0 0
125 0 1 1 21.578827357968407 7.415199221784764 4.348671436496264 0 0 0
1277 0 1 1 21.53683109092422 7.340057145912473 10.307161045306387 0 0 0
2429 0 1 1 21.623731331980917 7.544235728212154 15.960725060452145 0 0 0
221 0 1 1 21.60309151430336 13.00530331924519 4.364808313832452 0 0 0
1373 0 1 1 21.640424315960818 13.004226636922729 10.017308264641684 0 0 0
2525 0 1 1 21.73248629287097 13.100294735111722 15.855073865366732 0 0 0
37 0 1 1 27.214385029863852 1.380452793839136 4.1558801407856345 0 0 0
1189 0 1 1 27.419568600530123 1.4856472481063936 10.249990987543569 0 0 0
2341 0 1 1 27.468089543178536 1.384745656551816 15.863896216476267 0 0 0
133 0 1 1 27.24654391228841 7.227199741291594 4.377592609313544 0 0 0
1285 0 1 1 27.305165452817327 7.176455204333831 10.15821220516461 0 0 0
2437 0 1 1 27.368505794818454 7.054282002330836 15.93710168882345 0 0 0
229 0 1 1 27.37687726153595 12.944735155963718 4.142935382184543 0 0 0
1381 0 1 1 27.46188704610057 13.004500765096914 10.126135246062773 0 0 0
2533 0 1 1 27.427421123035092 13.192767017709324 15.922310101317118 0 0 0
45 0 1 1 33.221779931209866 1.4260640047868716 4.392909200472749 0 0 0
1197 0 1 1 33.327451594198045 1.3047976511874255 10.167004531358604 0 0 0
2349 0 1 1 33.26248939446701 1.342788836360871 15.770294374244806 0 0 0
141 0 1 1 32.96755614240093 7.0857806765737275 4.284867748955202 0 0 0
1293 0 1 1 33.315170651173105 7.294227085372827 10.021919798085607 0 0 0
2445 0 1 1 33.28555840499439 7.391464940541606 15.949957597505504 0 0 0
237 0 1 1 33.26253191931952 13.039284714258075 4.10873246545355 0 0 0
1389 0 1 1 33.2414852792006 12.916159778782001 9.844944285980462 0 0 0
2541 0 1 1 33.245949652710415 13.10554818151416 15.80827255853685 0 0 0
31 0 1 1 18.7768115319516 4.314177867918837 4.381617003654326 0 0 0
1183 0 1 1 18.915234935031823 4.145961633920473 9.909865501585887 0 0 0
2335 0 1 1 18.854203828321552 4.362526062257225 15.854022556631241 0 0 0
127 0 1 1 18.775068717397396 10.102462105344774 4.2114279495229345 0 0 0
1279 0 1 1 18.775038950770345 10.109394381275665 10.29010748710651 0 0 0
2431 0 1 1 18.638714906185367 10.097374165640801 15.82529033302822 0 0 0
223 0 1 1 18.879455920689313 15.741983235882493 4.40304180394426 0 0 0
1375 0 1 1 18.961958989929556 15.916201382554434 10.24120265341823 0 0 0
2527 0 1 1 18.896501182169775 15.72863884442011 16.12201667740971 0 0 0
39 0 1 1 24.49831670692033 4.464230352846303 4.355324329930101 0 0 0
1191 0 1 1 24.535472450978634 4.240913234534009 9.895899692784463 0 0 0
2343 0 1 1 24.5070867883904 4.2383038835987685 15.971616147993824 0 0 0
135 0 1 1 24.37501759641348 10.220383013039694 4.383966375521436 0 0 0
1287 0 1 1 24.5775802636086 10.091770929476915 10.123634402809925 0 0 0
2439 0 1 1 24.435636345366994 10.172619599442688 15.908346543344734 0 0 0
231 0 1 1 24.680176676779308 15.828973294895306 4.225553703068573 0 0 0
1383 0 1 1 24.573326372555986 15.77770200968484 10.181923081867573 0 0 0
2535 0 1 1 24.546023148666656 15.828176395639277 15.941487089576583 0 0 0
47 0 1 1 30.0796460915296 4.339387163357246 4.436983480065442 0 0 0
1199 0 1 1 30.401612321995177 4.306428239047677 10.234624608961049 0 0 0
2351 0 1 1 30.476305544866197 4.512466946805315 16.147743264983028 0 0 0
143 0 1 1 30.36023801584306 10.296785966683556 4.36740622218806 0 0 0
1295 0 1 1 30.550193398999273 10.06385309484283 10.12163513417315 0 0 0
2447 0 1 1 30.248969933137882 10.14390797639898 15.775333125878321 0 0 0
239 0 1 1 30.536555894680266 15.781372260489029 4.1302293898464 0 0 0
1391 0 1 1 30.383376425039128 15.7036169913254 10.312787673883541 0 0 0
2543 0 1 1 30.280134100886443 15.905781022967922 16.045599299333716 0 0 0
32 0 2 -1 21.701518297149203 4.261678781045807 4.311822701965439 0 0 0
1184 0 2 -1 21.69353048968776 4.448839821961291 10.115847768557048 0 0 0
2336 0 2 -1 21.661620861913935 4.196036814116196 15.923554983274297 0 0 0
128 0 2 -1 21.62229058561197 10.18860272521513 4.125435264388334 0 0 0
1280 0 2 -1 21.725899553228903 10.154228709013314 10.112647286973747 0 0 0