LAMMPS data file via write_data, version 23 Jun 2022, timestep = 500000

23200 atoms
4 atom types
12800 bonds
1 bond types
6400 angles
1 angle types

0 200 xlo xhi
0 57.73460575986499 ylo yhi
0 57.73325502235807 zlo zhi
0 0 -0.0014764801370566842 xy xz yz

Masses

1 22.9898
2 35.453
3 16
4 1.01

Atoms # full

6384 795 4 0.41 61.009904330087906 8.413495734681945 0.43825327213080584 0 0 1
22547 6183 3 -0.82 62.619923405125576 4.781330570686172 26.786870560174588 0 0 0
17767 4589 4 0.41 57.230552378772806 1.2438759535969166 5.213992480633341 0 0 0
5659 553 4 0.41 57.674454925225824 11.192559960751602 13.40287245270759 0 1 -1
13417 3139 4 0.41 62.777808382614666 4.528574924288457 14.049764243705399 0 2 0
11287 2429 4 0.41 62.78020230021938 6.367832044638469 21.521340503805362 0 4 0
5509 503 4 0.41 63.184584284902634 3.6076977095445213 16.32743248632832 0 2 0
20430 5477 4 0.41 59.096049775776194 4.72424841203878 15.378761358466106 0 -1 -1
22800 6267 4 0.41 58.12158988952984 5.013642642522806 12.969042413270198 0 0 2
5874 625 4 0.41 57.264658558865534 7.585183456413585 12.86484221112147 0 0 1
12246 2749 4 0.41 62.403894549999805 2.292160654868703 23.803585091239718 0 -1 -1
17815 4605 4 0.41 60.583678614957115 8.718949909809904 3.364571482765962 0 -1 2
22345 6115 4 0.41 64.21632468285516 1.1204510281323812 21.85573356435142 0 0 1
19561 5187 4 0.41 61.238083077618136 1.8984060946541397 27.18506597695381 0 0 1
17814 4605 4 0.41 60.32395829971791 10.182594361313983 3.8762925837612365 0 -1 2
12871 2957 4 0.41 63.408240684075054 1.8043006480294903 3.5683606629832805 0 -1 0
10362 2121 4 0.41 57.68588404765042 3.9274516802990678 26.63543780069514 0 1 1
22548 6183 4 0.41 62.63241548385928 4.001441385720932 26.109686250166973 0 0 0
21456 5819 4 0.41 58.108597836242616 10.488552484027638 9.890485182076883 0 0 1
10363 2121 4 0.41 56.86028766588809 3.7729685700126745 27.99832512058235 0 1 1
15265 3755 4 0.41 61.38592385304212 11.532508340469404 23.06703630085441 0 0 -1
17083 4361 4 0.41 62.356695758159276 14.107807684409421 0.01128091799367647 0 0 2
12990 2997 4 0.41 59.56507975846538 4.719726884938822 19.529389134631234 0 0 0
22801 6267 4 0.41 57.700895939238194 3.7527753187082387 11.816530413374949 0 0 2
22069 6023 4 0.41 56.64630668939004 6.393256684560631 6.422982966641996 0 0 -1
6785 929 3 -0.82 63.69223146606859 9.795887101070289 21.8136836880038 0 1 0
12180 2727 4 0.41 58.58337446357118 6.848783947826258 19.230294607953013 0 0 -1
14064 3355 4 0.41 58.011979958810414 13.319410733355225 15.505525203333015 0 1 1
17082 4361 4 0.41 62.3560196187268 14.112059198832965 1.6692107652624426 0 0 2
13723 3241 4 0.41 60.524567778029926 2.3147795597519454 19.916049565763778 0 0 1
17317 4439 4 0.41 57.97408511841743 6.802325689228916 1.3957794680103124 0 0 0
4013 5 3 -0.82 58.49060246651433 8.693258740173079 18.94969062244355 0 3 1
7621 1207 4 0.41 56.36440837964008 8.075302707031675 8.19328158764394 0 -1 4
8767 1589 4 0.41 61.49459101880503 4.699214484794064 1.6537893817243023 0 1 0
8765 1589 3 -0.82 60.955822971192376 5.479752073460805 1.9605632656663494 0 1 0
5873 625 3 -0.82 57.52242195121191 7.830841560812867 13.818513324974845 0 0 1
18323 4775 3 -0.82 59.67927775337951 3.4406328369887165 16.566881603977667 0 1 1
10236 2079 4 0.41 65.75574226214499 10.837087633279769 23.467508920407354 0 1 0
15605 3869 3 -0.82 61.19767165079272 6.44470982085554 17.405385776259543 0 0 1
5875 625 4 0.41 58.030134710569556 6.987242721770613 14.203467691640295 0 0 1
21625 5875 4 0.41 64.8435366793969 10.051148456604873 4.035658419436385 0 1 -1
5657 553 3 -0.82 57.52069474937376 10.71296922129416 14.313672552271782 0 1 -1
12455 2819 3 -0.82 65.57796625887505 9.920949351489448 26.940430389929183 0 0 -1
20695 5565 4 0.41 61.50720356070013 6.157196394118497 26.435378280914524 0 1 -1
12534 2845 4 0.41 61.20571360782524 9.756502685151146 8.503143264883576 0 6 0
17508 4503 4 0.41 63.55106522527175 13.796994456091447 27.71465028968762 0 0 0
13218 3073 4 0.41 61.82206709465275 12.436599902753253 19.821417275959245 0 3 -1
6732 911 4 0.41 60.902231574928386 4.072686656501612 23.808773233622286 0 -3 1
7063 1021 4 0.41 59.548058391953504 6.021700674566614 23.34367605560753 0 4 -5
15047 3683 3 -0.82 56.04875439503074 0.04818726343158761 11.636646472299141 0 3 1
19711 5237 4 0.41 60.868685804773 7.070337975857597 9.024376452478103 0 1 1
14904 3635 4 0.41 64.79000519288147 6.971844140100944 15.857298881501332 0 -1 1
22087 6029 4 0.41 62.447410829731794 8.110215580580308 13.756308430017251 0 0 0
12949 2983 4 0.41 57.86034973259774 2.350064515551547 6.9600292915331945 0 2 1
11063 2355 3 -0.82 58.71970601119341 1.6816624146623784 21.83923354634847 0 0 0
6600 867 4 0.41 64.22282502803583 11.178060986234668 25.681675063381192 0 1 0
12179 2727 3 -0.82 58.84324970110381 6.023754307145209 18.67170471403991 0 0 -1
20532 5511 4 0.41 61.982895957515346 3.9861648581697597 4.785350797590282 0 1 3
5849 617 3 -0.82 65.52423873383796 10.167992951751911 18.07811294543546 0 1 2
19710 5237 4 0.41 61.05783766458681 8.168190087557962 10.278933241060122 0 1 1
17315 4439 3 -0.82 58.35873814870255 6.465435507656714 0.522637913261375 0 0 0
11285 2429 3 -0.82 62.07104894858387 6.159083315733903 20.84896831464205 0 4 0
18324 4775 4 0.41 59.482683596550224 3.061414782209622 17.493744715457645 0 1 1
13151 3051 3 -0.82 64.75255529437287 7.224699269216013 3.9188152878143243 0 1 0
20208 5403 4 0.41 63.80191941815364 7.187198029915508 11.910277304379447 0 -1 2
5005 335 4 0.41 65.17267616675542 13.11810717882086 6.49035159909173 0 0 -1
22325 6109 3 -0.82 59.99725626991356 8.083215884421064 20.929144304434683 0 1 -1
9072 1691 4 0.41 59.99757728482612 1.4011907234113021 22.828628841879773 0 0 4
22327 6109 4 0.41 59.453891083091904 7.5387893469687 21.6636207012861 0 1 -1
14423 3475 3 -0.82 59.66612648599826 13.462154123158438 27.18359461403685 0 1 0
11286 2429 4 0.41 61.374811491436965 6.892559162132826 20.691637160434308 0 4 0
7464 1155 4 0.41 63.170379937802544 12.719887968783839 11.844079508810784 0 2 1
22549 6183 4 0.41 63.59721162559148 5.120900826258538 26.747626235120986 0 0 0
12247 2749 4 0.41 63.34005778246811 3.6263986228517204 23.929647538711468 0 -1 -1
12989 2997 3 -0.82 60.02682157365354 4.118721508431702 20.247563932656675 0 0 0
6385 795 4 0.41 59.78334765040443 9.58902696488079 0.1748240906840121 0 0 1
4825 275 4 0.41 61.76343674245965 8.048751071632488 28.13833376453885 0 -2 1
6787 929 4 0.41 63.030770675047656 10.110463276038857 22.531418003788367 0 1 0
7459 1153 4 0.41 61.2650776634907 1.258464713945222 6.830979754925342 0 -1 3
12720 2907 4 0.41 61.84109548906404 13.166567318109268 17.26780917026317 0 1 1
9325 1775 4 0.41 61.64105076610685 12.488336096294146 10.20671229151212 0 -3 -1
14388 3463 4 0.41 65.23066577413893 3.071032294690491 23.126496874532435 0 0 2
13854 3285 4 0.41 63.27749327160929 11.464479791467665 7.216958911149629 0 2 3
9883 1961 4 0.41 63.96913673811269 6.875841322034318 23.089733316154927 0 1 1
17981 4661 3 -0.82 57.72690254178844 2.847364608528996 25.124417653188047 0 2 -1
15594 3865 4 0.41 59.4021761459689 1.858221081608519 8.51053019662968 0 2 0
11747 2583 3 -0.82 58.21644856832451 0.6500766907987015 28.375413125396488 0 1 -2
21431 5811 3 -0.82 60.14844565853223 9.744253713949297 25.704062579381965 0 2 0
22086 6029 4 0.41 61.66973019978832 6.766524906245812 14.456823360397218 0 0 0
4800 267 4 0.41 59.22532419775197 14.283612265774117 23.13678229254307 0 4 1
13307 3103 3 -0.82 64.97383764278887 4.638792593072408 3.339397540344955 0 -2 -2
15264 3755 4 0.41 62.72328725456785 11.583354246882918 24.214595456403078 0 0 -1
14233 3411 4 0.41 58.94562789326541 1.851698217176619 12.135732695311694 0 2 4
15593 3865 3 -0.82 59.06199921796319 2.7237376505265964 8.88220472555349 0 2 0
9324 1775 4 0.41 60.12725653301363 12.150813549314018 9.383050736959781 0 -3 -1
22247 6083 3 -0.82 61.74023249338736 8.023191782466094 2.0283564996643793 0 0 1
8933 1645 3 -0.82 65.61170285755047 12.074121142378424 14.987057422081179 0 2 1
10037 2013 3 -0.82 65.13778515134295 11.973768163003184 21.921659491108354 0 3 -1
13152 3051 4 0.41 64.78504403391528 6.21123589810482 3.648065162150682 0 1 0
12535 2845 4 0.41 60.50050621671317 8.96705174914461 7.354407939615067 0 6 0
19709 5237 3 -0.82 60.780610383159065 7.1696058765646695 10.053645442785268 0 1 1
8868 1623 4 0.41 63.582721346656626 1.7139564115348964 10.182019393040022 0 -1 2
10577 2193 3 -0.82 58.20193836833653 12.540466871060001 10.044905010218471 0 0 1
20207 5403 3 -0.82 64.28753405862022 6.444755262772053 11.418047882063128 0 -1 2
20694 5565 4 0.41 60.27703256759365 6.906655356820133 27.067050207615967 0 1 -1
21503 5835 3 -0.82 65.78969164786415 0.6491295790997165 4.5419298584911845 0 -1 0
19080 5027 4 0.41 60.45014509569418 13.93011039015679 14.543752843575422 0 20 4
12181 2727 4 0.41 59.586552000193215 6.306389564535467 18.037508535550486 0 0 -1
17081 4361 3 -0.82 62.84814032868184 13.768969787677054 0.8527216421402599 0 0 2
15049 3683 4 0.41 56.569812966134705 0.8132769393331154 12.047549606457691 0 3 1
21287 5763 3 -0.82 62.9071927177264 1.8229432585983059 6.470352095856413 0 1 1
12991 2997 4 0.41 60.81991169301916 4.658043687957513 20.559447043979432 0 0 0
21931 5977 4 0.41 61.82873013034968 13.349102729571754 7.857402345025045 0 1 -1
14387 3463 3 -0.82 64.9305147638894 3.9843227467058453 23.461747507066008 0 0 2
10038 2013 4 0.41 64.46259507730915 11.213188863840656 21.81945454685111 0 3 -1
17736 4579 4 0.41 63.64886310426131 3.088469987202984 0.9573064634047551 0 0 0
22248 6083 4 0.41 61.5492756947568 6.986909104325143 1.9314657582290427 0 0 1
13715 3239 3 -0.82 65.3283278149304 6.813152927241177 19.132227927533428 0 -1 1
20323 5441 4 0.41 58.714146650356525 1.5505062672544474 0.2231219530809251 0 1 1
4777 259 4 0.41 63.94594487585754 13.69982950224391 17.880907340398085 0 0 -3
14838 3613 4 0.41 65.36971786844849 13.61190307509607 12.19510897800833 0 -1 -1
11065 2355 4 0.41 58.93549948597712 1.1978001879543645 20.957696513421944 0 0 0
10141 2047 4 0.41 58.74670621816295 3.651653608526781 4.828781975475807 0 1 0
4014 5 4 0.41 58.780227205697855 9.34543033349362 18.18316548379119 0 3 1
10140 2047 4 0.41 58.98486778091561 4.060086123490209 3.2492677348899788 0 1 0
21623 5875 3 -0.82 64.20765268788305 10.816153963539124 3.9327940417293012 0 1 -1
19572 5191 4 0.41 58.249062953268 7.73647233986078 6.378176536311833 0 0 -3
6767 923 3 -0.82 64.48765325066867 3.8060857899684497 7.21600952744916 0 -2 1
14839 3613 4 0.41 64.90186836026916 13.642760168756235 10.520157033768559 0 -1 -1
16152 4051 4 0.41 64.89824403078083 0.6854892434675254 18.79528095920678 0 1 0
10139 2047 3 -0.82 58.626139668459174 3.3439608831301313 3.839043806354192 0 1 0
13441 3147 4 0.41 65.58109326846574 10.472749209040494 14.215770008813594 0 2 0
10579 2193 4 0.41 58.35860357788394 12.610389121780283 11.050330726013234 0 0 1
22068 6023 4 0.41 57.91725915394821 5.462197157563936 5.888674737646398 0 0 -1
11269 2423 4 0.41 60.54598333511699 11.373489282889569 1.6506681399655507 0 1 2
7062 1021 4 0.41 58.248301063633235 6.721756020970474 23.87664341496786 0 4 -5
9804 1935 4 0.41 59.89812184579648 4.358699144426516 5.9504095012083695 0 0 0
18060 4687 4 0.41 57.473703502660314 5.980428432437351 11.182783841648083 0 0 -1
13153 3051 4 0.41 64.10338352682763 7.197634465092545 4.763969672940116 0 1 0
14065 3355 4 0.41 57.12924222817865 11.999562941285923 16.165329005255668 0 1 1
21929 5977 3 -0.82 62.07020377538964 14.138948605239895 7.191342234802454 0 1 -1
13440 3147 4 0.41 65.54728290802312 8.732832082188938 14.27253346682402 0 2 0
8490 1497 4 0.41 61.382634996649784 11.51384793592103 15.14435935647341 0 2 2
21491 5831 3 -0.82 59.069993598445116 13.97199717235952 18.127814225464622 0 1 -4
7619 1207 3 -0.82 56.705879238759636 7.118749277051401 8.113524495506365 0 -1 4
12011 2671 3 -0.82 57.990982855113636 13.485040248460503 12.581202610156074 0 1 2
21257 5753 3 -0.82 61.1654979812823 1.9912132672578455 12.137243831894073 0 0 1
8915 1639 3 -0.82 63.294168176332654 8.62922770863946 12.477050858582876 0 3 2
16153 4051 4 0.41 64.60305723189589 0.7497731558331546 17.11953045596069 0 1 0
8869 1623 4 0.41 62.73369657114504 2.1369048458134072 8.83167251314488 0 -1 2
12719 2907 3 -0.82 61.54203412674059 14.184616506326192 17.207899159502148 0 1 1
13986 3329 4 0.41 62.59028848833067 1.2662690134598338 15.71881682516831 0 3 6
21798 5933 4 0.41 63.48072435238931 12.35418266316176 1.2057364454184853 0 1 -1
13985 3329 3 -0.82 63.58140066704973 1.1599363801919529 15.79683778201384 0 3 6
7465 1155 4 0.41 61.73346745198243 12.271129520543669 12.647270283630764 0 2 1
20533 5511 4 0.41 61.56307800220336 5.646311597065686 5.302031558521473 0 1 3
6733 911 4 0.41 59.950795716224135 4.0997956912505105 22.398557971907767 0 -3 1
13439 3147 3 -0.82 65.55624455955267 9.592140760960278 13.648469718861346 0 2 0
9071 1691 3 -0.82 60.67625078736104 1.0480497964910016 23.488272805473798 0 0 4
8867 1623 3 -0.82 62.74230349806559 2.209991998642204 9.895516543433459 0 -1 2
15048 3683 4 0.41 55.01260806154195 0.0298084647319341 11.716022395058976 0 3 1
12996 2999 4 0.41 61.85394776109964 9.166613563890374 15.709409954332914 0 0 0
17305 4435 4 0.41 59.08555612824098 11.436082120560307 27.899381837504777 0 -2 1
21198 5733 4 0.41 62.724569764040595 8.741460658941179 24.370082278792673 0 0 0
7463 1155 3 -0.82 62.24229622749215 12.243375439193805 11.735791518236434 0 2 1
17509 4503 4 0.41 62.8833823268716 13.138433509677544 26.372122572658032 0 0 0
21259 5753 4 0.41 61.068703693585306 0.9732084027410475 12.103849814697794 0 0 1
12947 2983 3 -0.82 57.35924369579545 1.4702594362195573 6.844706477108985 0 2 1
22344 6115 4 0.41 65.79248895237171 1.0139745524803403 22.24925369430484 0 0 1
22147 6049 4 0.41 64.9527319256881 10.800818468445792 9.128616575681693 0 -2 0
21799 5933 4 0.41 64.0282888733057 11.155606300671 2.2480951926524706 0 1 -1
13855 3285 4 0.41 62.843116540433144 9.923516666329782 7.7406728404804195 0 2 3
5850 617 4 0.41 64.91511519242091 9.339027870262269 17.9431942160812 0 1 2
17982 4661 4 0.41 58.184949298184776 1.9846710991066794 25.475450381901407 0 2 -1
20209 5403 4 0.41 63.630690157524974 5.680698726826711 11.403779341679453 0 -1 2
5658 553 4 0.41 57.45321466589856 9.663645729529797 14.143245117008306 0 1 -1
21433 5811 4 0.41 60.656406943306564 10.521614751151871 25.24183099878592 0 2 0
6786 929 4 0.41 63.76902192455343 8.756720845626043 21.853009273712814 0 1 0
9073 1691 4 0.41 60.10859583719375 0.9424965885913427 24.371829438449655 0 0 4
13949 3317 3 -0.82 61.892085099580726 9.23368354557033 18.917389925964265 0 1 -1
7061 1021 3 -0.82 59.04148753093638 6.884178853909751 23.31375350704961 0 4 -5
12997 2999 4 0.41 61.870155766338854 9.797344490748037 17.13110054873344 0 0 0
13951 3317 4 0.41 61.097358743612965 8.700285593674026 19.305167104965893 0 1 -1
9805 1935 4 0.41 59.131357130157745 3.7437333121461602 7.282827878433053 0 0 0
14837 3613 3 -0.82 64.60477232557294 13.449081827273327 11.520625061908541 0 -1 -1
14231 3411 3 -0.82 58.168931674224226 2.011287127195848 11.544941397272401 0 2 4
15595 3865 4 0.41 59.14994303346541 2.645342351445597 9.868861466439665 0 2 0
17167 4389 4 0.41 60.165060183874864 10.169005859417753 16.501389716939258 0 0 0
6601 867 4 0.41 64.60415099889484 12.628731261842377 25.16146492194922 0 1 0
16098 4033 4 0.41 63.89704029810299 7.087220673589275 6.407095889251657 0 1 1
16099 4033 4 0.41 62.43914189949734 8.0495718044522 6.740568474991302 0 1 1
9882 1961 4 0.41 64.75309216158938 5.705463811041557 22.510641680725424 0 1 1
22799 6267 3 -0.82 57.47745019043511 4.7023030183183785 12.174619280057186 0 0 2
5173 391 4 0.41 64.89440757673368 5.081966913914928 14.504397705264843 0 3 -1
17735 4579 3 -0.82 62.642588193165224 3.2563537410795136 0.7825032538950778 0 0 0
8844 1615 4 0.41 59.775706644014306 2.210836253949105 15.267686567673255 0 1 1
21457 5819 4 0.41 58.01046814614024 8.95056601856389 10.323906802609281 0 0 1
17304 4435 4 0.41 59.582779661728495 9.923720349648809 27.291847242570476 0 -2 1
13950 3317 4 0.41 61.9078723195882 10.148675842882385 19.286748640826687 0 1 -1
11064 2355 4 0.41 57.73374916655584 1.8100697439162254 21.871079071536 0 0 0
5851 617 4 0.41 65.0464353381796 11.03630303423697 17.845503782548057 0 1 2
14063 3355 3 -0.82 57.45187166464037 12.956644578969286 16.3328606100808 0 1 1
22326 6109 4 0.41 59.35665606500448 8.255351749935162 20.149461330123085 0 1 -1
21289 5763 4 0.41 62.900423487398804 1.968352285089767 5.45877161765216 0 1 1
14425 3475 4 0.41 59.33643288886537 13.449727711470803 26.20205610112715 0 1 0
5003 335 3 -0.82 64.25309632355435 12.854694456684877 5.985220088378877 0 0 -1
13721 3241 3 -0.82 60.919940388496116 1.535161344982448 19.42105376518791 0 0 1
12869 2957 3 -0.82 62.73761976627629 2.587929003825742 3.8861615627578816 0 -1 0
21197 5733 3 -0.82 63.13723698624648 7.858531542496254 24.382752407416017 0 0 0
8845 1615 4 0.41 60.60447764376977 1.8641521547825428 13.70145254707799 0 1 1
12721 2907 4 0.41 60.589009402281604 14.117636096856325 17.62390152379998 0 1 1
19559 5187 3 -0.82 61.942269041287176 1.5344134927564688 26.46233405699195 0 0 1
12605 2869 3 -0.82 65.38292566656779 6.908328503336457 6.849121962321972 0 1 0
18059 4687 3 -0.82 57.78084877975505 6.738787926428876 10.526714338981662 0 0 -1
21797 5933 3 -0.82 63.9681639377223 11.45283388225906 1.2928879826013704 0 1 -1
21432 5811 4 0.41 60.303782876177166 8.893831180022193 25.125328715337513 0 2 0
12995 2999 3 -0.82 61.67741112331214 9.999492177869936 16.164347712802584 0 0 0
19997 5333 3 -0.82 59.034593676390735 0.5877049873100657 25.758224161345787 0 0 0
4824 275 4 0.41 61.03268864285919 9.49118115127129 28.65748631029518 0 -2 1
6769 923 4 0.41 64.98007487924322 3.7170005860470323 8.110414752315648 0 -2 1
17028 4343 4 0.41 61.812822620957256 10.582018041233468 11.046965388744367 0 1 1
4085 29 3 -0.82 60.747335415444766 1.4572586311486122 2.1386100354822783 0 3 -2
8491 1497 4 0.41 62.507521948493384 12.689346851831193 14.780189176099126 0 2 2
10361 2121 3 -0.82 57.724845937579 4.083721627045776 27.620480013414408 0 1 1
4086 29 4 0.41 59.81416432345591 1.6127158150588645 2.469221631622713 0 3 -2
10848 2283 4 0.41 59.70865315163864 12.121008435149639 21.445655759004048 0 0 2
12870 2957 4 0.41 61.85942798543319 2.4645430651222138 3.3571601173969503 0 -1 0
19272 5091 4 0.41 64.97401153947001 9.74875949217235 6.560507996856643 0 1 -1
5375 459 3 -0.82 65.2780337232116 4.734930998465613 26.628603429854735 0 1 -1
17983 4661 4 0.41 58.414078769537525 3.2407646287017546 24.5074626609606 0 2 -1
16698 4233 4 0.41 63.75046391858204 13.993415675382955 24.301032142460695 0 1 0
22133 6045 3 -0.82 60.21749588810362 13.302152176651697 20.398201596227867 0 0 -1
15606 3869 4 0.41 61.75208735125081 7.293909778974538 17.60761234530655 0 0 1
4230 77 4 0.41 58.84096248138518 7.948947375573913 3.5162823811763952 0 -1 2
19998 5333 4 0.41 58.784325417186025 0.7097234967113715 26.71818264074299 0 0 0
8916 1639 4 0.41 64.12658598343023 9.328376848406608 12.498680516594451 0 3 2
15450 3817 4 0.41 62.31265692205859 4.161362116117927 10.286440887299387 0 1 1
12013 2671 4 0.41 58.491479929629385 13.967999133060056 13.29658692982741 0 1 2
8843 1615 3 -0.82 60.056849885585464 1.5189463540616472 14.480103750284732 0 1 1
21312 5771 4 0.41 61.38505238487918 12.473528093450671 3.550466450680882 0 2 0
19560 5187 4 0.41 61.966126253522745 2.056763107700588 25.562509770909237 0 0 1
17507 4503 3 -0.82 62.68958423532928 13.849782939954519 27.129058628286444 0 0 0
15449 3817 3 -0.82 62.170695800446055 4.831825492904098 10.994898701545752 0 1 1
4015 5 4 0.41 57.53145669045371 8.393434630413235 18.680787551424686 0 3 1
11268 2423 4 0.41 59.86584627545428 12.404258320043885 0.5622420849044553 0 1 2
20693 5565 3 -0.82 61.224596118177544 7.098070568313803 26.71547257765957 0 1 -1
19986 5329 4 0.41 65.32579787710974 6.866839190278145 10.174321212162933 0 1 -1
13308 3103 4 0.41 64.44332616158823 3.8388973527826176 3.6694264070213376 0 -2 -2
18061 4687 4 0.41 58.705821740496724 6.520592656006454 10.251707647936769 0 0 -1
13416 3139 4 0.41 61.936251303464054 4.656037802704265 12.605449678569865 0 2 0
21469 5823 4 0.41 59.258080573168215 1.992881594993892 28.622863957161414 0 -1 0
13853 3285 3 -0.82 63.625822946905416 10.63092764371103 7.691868454886588 0 2 3
17813 4605 3 -0.82 60.07997495067367 9.205335495341144 4.074252416583881 0 -1 2
7458 1153 4 0.41 59.8953476125559 0.21827798752716998 6.433075268199585 0 -1 3
19765 5255 4 0.41 65.53078208277687 12.271652189427861 1.2851922692414532 0 1 0
22249 6083 4 0.41 62.72243420358256 7.982335374251544 2.412831552333251 0 0 1
17765 4589 3 -0.82 57.38455478882477 1.105625011049529 4.200017755321274 0 0 0
15451 3817 4 0.41 61.62404700915659 5.630382106448415 10.602810817725514 0 1 1
12533 2845 3 -0.82 61.44214099590175 9.198880699152568 7.7189276260103465 0 6 0
10847 2283 3 -0.82 59.61924608731891 11.426312189691428 22.202586774785054 0 0 2
21258 5753 4 0.41 61.85617239795975 2.362414363574374 11.455022797981256 0 0 1
14903 3635 3 -0.82 64.27611842482844 7.69903663426664 16.35033650370563 0 -1 1
8249 1417 3 -0.82 63.05028156486225 0.33125466488785804 20.867195290584107 0 -1 1
13716 3239 4 0.41 64.72980562366011 7.028907647114669 18.274645364383368 0 -1 1
13717 3239 4 0.41 64.7447098716529 6.9143177240064935 19.9827359656247 0 -1 1
17029 4343 4 0.41 60.33725496475423 9.85205357705518 10.76130980868189 0 1 1
20429 5477 3 -0.82 59.092383927922434 5.248881900037606 14.501352406500377 0 -1 -1
14424 3475 4 0.41 60.70815536423958 13.292685988844914 27.30206655505017 0 1 0
17166 4389 4 0.41 58.692414847617904 10.232272098251816 15.817299206065384 0 0 0
4231 77 4 0.41 57.8703083733784 6.761867960653147 4.171236853903212 0 -1 2
5172 391 4 0.41 65.04330820493895 3.8209939899255088 13.478743792824469 0 3 -1
12948 2983 4 0.41 57.374027510822565 1.0744519339342766 7.789673873506769 0 2 1
21493 5831 4 0.41 58.367357673268025 13.326620505323787 17.65043449546545 0 1 -4
22085 6029 3 -0.82 61.97561853157703 7.6940338170136995 14.63504890440413 0 0 0
9323 1775 3 -0.82 61.14864732423001 12.444157553832625 9.306938086990444 0 -3 -1
17027 4343 3 -0.82 61.330403923742594 9.687873196001968 10.779955455715223 0 1 1
21313 5771 4 0.41 62.151283170733485 10.900498356432365 3.471974945473746 0 2 0
5171 391 3 -0.82 64.45985917561762 4.163490947289682 14.280365197328251 0 3 -1
17737 4579 4 0.41 62.04311920595084 2.4019051107864984 0.8283163085757442 0 0 0
13219 3073 4 0.41 63.17286109407223 12.012974667169575 18.854356054252772 0 3 -1
7824 1275 4 0.41 64.13272226902589 4.122066010483732 19.81364108511922 0 0 -1
10849 2283 4 0.41 59.286031457846 10.533417889834878 21.85494681735687 0 0 2
7097 1033 3 -0.82 63.03243534503298 0.47395089966785015 0.2191226752745886 0 -2 0
15607 3869 4 0.41 61.734188956614624 5.756968435932695 16.89722210846291 0 0 1
8929 1643 4 0.41 64.69171065028145 0.096967400526719 10.472709964386972 0 -2 2
17455 4485 4 0.41 58.601760493011355 5.507302794327344 28.546976887930068 0 2 0
19573 5191 4 0.41 59.30575423120049 8.672209421479437 5.508994634241052 0 0 -3
14232 3411 4 0.41 58.07328699742995 1.3015469302175229 10.834182005646962 0 2 4
15263 3755 3 -0.82 62.11985374058403 11.031660208844848 23.55097990847738 0 0 -1
6731 911 3 -0.82 60.005935214670444 4.325366839483447 23.373368114660547 0 -3 1
13415 3139 3 -0.82 61.88651152965392 4.722874943031615 13.608628941414656 0 2 0
4087 29 4 0.41 60.87178949478851 0.4551138655658405 2.186965238821323 0 3 -2
6599 867 3 -0.82 63.804111253705045 12.041621859433674 25.386181529909347 0 1 0
17766 4589 4 0.41 57.7316739868317 2.0430623040376625 3.8334351883352533 0 0 0
21311 5771 3 -0.82 61.244856925698585 11.483658978035203 3.4524615611915195 0 2 0
22135 6045 4 0.41 59.71801607536184 13.244740654709169 19.497989143618028 0 0 -1
20431 5477 4 0.41 60.066114819653016 5.215996166710275 14.279685077251807 0 -1 -1
13309 3103 4 0.41 65.12644954715041 4.4213245773925385 2.397505215518975 0 -2 -2
21288 5763 4 0.41 63.59136020806139 2.5134510012428506 6.871701985253102 0 1 1
7632 1211 4 0.41 64.67618208068754 10.106152704642748 28.393656899532115 0 1 0
9881 1961 3 -0.82 64.43050163723304 6.589066672750084 22.184660960961903 0 1 1
16097 4033 3 -0.82 62.88743695493684 7.294110929312201 6.16569193587432 0 1 1
17303 4435 3 -0.82 59.333946294088605 10.464678922404893 28.172569934797664 0 -2 1
8251 1417 4 0.41 62.2366034292173 0.8054014020236532 20.378880708630465 0 -1 1
12012 2671 4 0.41 57.02187780566206 13.891685175820164 12.761838906508514 0 1 2
8927 1643 3 -0.82 65.08394075718911 0.7473387655785719 9.739975926081224 0 -2 2
10578 2193 4 0.41 57.970467633030665 13.530015296159766 9.946146249521364 0 0 1
21199 5733 4 0.41 62.83137267778799 7.3512391709159015 25.14525818297937 0 0 0
5508 503 4 0.41 62.77283463872377 4.115068558006749 17.77550801286513 0 2 0
9803 1935 3 -0.82 58.97778467278402 4.2942559866418 6.402185486897172 0 0 0
17165 4389 3 -0.82 59.1634123536023 10.116633780911087 16.70858080046116 0 0 0
14905 3635 4 0.41 63.47058418274466 7.77222698745125 15.735255869175742 0 -1 1
12245 2749 3 -0.82 62.53414182347227 3.1744274613924888 24.367157721688443 0 -1 -1
4229 77 3 -0.82 58.286178912872664 7.118125812637231 3.271580036388266 0 -1 2
20531 5511 3 -0.82 61.265620063214065 4.724644956982848 5.029633643884467 0 1 3
6768 923 4 0.41 65.1318363265972 4.3721451421767075 6.6888031498649 0 -2 1
4775 259 3 -0.82 64.03403893965628 12.747321042326494 17.613658434688155 0 0 -3
21624 5875 4 0.41 64.21794622187343 11.52714759131898 4.637747763871194 0 1 -1
7823 1275 3 -0.82 63.25608121439299 4.333684491559345 19.318793409818174 0 0 -1
5507 503 3 -0.82 62.39325994084513 4.034939958958096 16.804898010308552 0 2 0
11267 2423 3 -0.82 60.087750268358576 11.405210260525502 0.7141580243976063 0 1 2
19571 5191 3 -0.82 59.05127331854763 8.368999555496137 6.4606101254040835 0 0 -3
8489 1497 3 -0.82 61.579194307016216 12.267282335992215 14.464721360642192 0 2 2
7620 1207 4 0.41 56.818017592077766 6.725507502864664 9.032235214335255 0 -1 4
14389 3463 4 0.41 65.6128942485139 4.2187594330082145 24.234315061690857 0 0 2
7825 1275 4 0.41 62.6501324034615 5.006602025491282 19.71597096905632 0 0 -1
16697 4233 3 -0.82 63.73059036798544 14.145392757088139 23.27027257300318 0 1 0
22134 6045 4 0.41 59.963040065998726 14.22964375553807 20.675242631635747 0 0 -1
21455 5819 3 -0.82 58.64372276408353 9.729799740202 10.253836189211661 0 0 1
17279 4427 3 -0.82 64.94781988986519 1.0968864806990908 25.1271873475471 0 2 0
4776 259 4 0.41 64.51066825244695 12.817877317673194 16.71102234088167 0 0 -3
18325 4775 4 0.41 60.69039177674006 3.6777396675031686 16.487209072113483 0 1 1
8766 1589 4 0.41 59.96415054742686 5.508892109281422 1.7759350025353855 0 1 0
7457 1153 3 -0.82 60.33253531818051 0.917543932144267 7.1270579664757285 0 -1 3
22067 6023 3 -0.82 57.271367560933605 6.247882749904605 5.599031568556425 0 0 -1
16151 4051 3 -0.82 64.99417236723185 0.19716574359760822 17.890942215104683 0 1 0
13722 3241 4 0.41 60.209374276871344 0.7969900718639885 19.356163481859486 0 0 1
5004 335 4 0.41 63.53659220704094 13.473591081619999 6.404542341092871 0 0 -1
17905 4635 4 0.41 62.43790568952248 0.13186167691469172 25.644894205428884 0 1 0
17281 4427 4 0.41 64.09678536275517 1.5066778634753015 25.53475538312315 0 2 0
8934 1645 4 0.41 65.72434534160398 12.822452737807893 14.281119153064383 0 2 1
8917 1639 4 0.41 62.56483049131346 9.007936842249656 11.886449563996187 0 3 2
16939 4313 4 0.41 63.5529167023016 0.1675850289150611 2.0582361418678685 0 2 0
13217 3073 3 -0.82 62.538091986936706 11.718600581984777 19.60173174445651 0 3 -1
16699 4233 4 0.41 63.82012287372082 13.231657509631857 22.740066253415876 0 1 0
21504 5835 4 0.41 65.02501896292883 0.510059495587729 3.9236695802469543 0 -1 0
23057 6353 3 -0.82 65.6781291732765 3.674576347532607 0.7679112198156516 0 1 0
16937 4313 3 -0.82 63.621952050052585 0.06975612122409229 3.121533294468854 0 2 0
17280 4427 4 0.41 64.89779900862948 1.1773827930134655 24.08358939245249 0 2 0
18869 4957 3 -0.82 61.30085036906978 14.377245306681802 3.0596500827370723 0 2 3
22343 6115 3 -0.82 64.93096228719735 1.5111964801885156 22.49500489769786 0 0 1
13987 3329 4 0.41 63.856152234679634 1.2954371963628208 14.789777659407994 0 3 6
6929 977 3 -0.82 59.47709071524617 14.218192251789139 0.8799129256760183 0 -2 0
19987 5329 4 0.41 65.79309695377623 7.067689854355908 8.497687681032149 0 1 -1
17316 4439 4 0.41 59.0969043698215 7.18881322872389 0.27652499843706757 0 0 0
15804 3935 4 0.41 65.70129029879577 13.321341109119729 28.688338883432706 0 1 0
15803 3935 3 -0.82 64.64357640319328 13.13529497396074 28.639746131318812 0 1 0
18870 4957 4 0.41 60.4091254753905 14.052649320388351 2.728299904272405 0 2 3
5376 459 4 0.41 65.7266795266904 4.561309063403772 27.50955164616875 0 1 -1
16165 4055 4 0.41 65.13682773308835 14.431519900028238 21.39252329383077 0 -1 0
22734 6245 4 0.41 65.47380814412963 14.423154414553176 8.365032580471633 0 0 -1
6043 681 4 0.41 61.47269501352821 0.018833260434167238 17.814226957402692 0 1 0
22728 6243 4 0.41 63.351921477191034 0.07492081495646559 7.104996340454943 0 0 1
15805 3935 4 0.41 64.57615251562171 12.122895156780448 28.660613750437957 0 1 0
21467 5823 3 -0.82 60.14980545853943 2.544735236380913 28.69244803583172 0 -1 0
12456 2819 4 0.41 66.3203552578146 9.725012501473069 27.623892094348815 0 0 -1
6859 953 4 0.41 72.00451653590765 9.26903980712275 9.524340713401603 0 2 1
18661 4887 4 0.41 71.05152454709285 11.211131031529284 12.005965535425283 0 -1 -2
19225 5075 4 0.41 67.5813180347098 3.1444012715655583 19.240091857630638 0 1 0
11047 2349 4 0.41 72.92632910969019 8.068507630911604 25.277534055084125 0 0 1
22451 6151 3 -0.82 73.2870737564162 10.166402186020361 2.0828112602076057 0 1 -1
6799 933 4 0.41 67.38812207503071 9.897303345632478 20.65220338199276 0 0 -1
6630 877 4 0.41 72.86141385357396 6.540475564938534 21.810090755591997 0 -1 0