LAMMPS data file via write_data, version 3 Mar 2020, timestep = 50000

19200 atoms
4 atom types
12800 bonds
1 bond types
6400 angles
1 angle types

0.0000000000000000e+00 4.0000000000000000e+02 xlo xhi
0.0000000000000000e+00 4.0000000000000000e+01 ylo yhi
0.0000000000000000e+00 4.0000000000000000e+01 zlo zhi
0.0000000000000000e+00 0.0000000000000000e+00 0.0000000000000000e+00 xy xz yz

Masses

1 22.98977
2 35.453
3 16
4 1.01

Atoms # full

1	1	3	-0.82	152.1284992194	2.8267030387	31.3395523437	0	0	-2
2	1	4	0.41	151.7972290179	1.9066617115	31.5670825266	0	0	-2
3	1	4	0.41	151.6827363730	3.5480225103	31.8080723512	0	0	-2
4	2	3	-0.82	213.6479212230	17.8880684409	3.7100858178	0	-4	-1
5	2	4	0.41	213.9438281461	17.5450378840	4.6119326284	0	-4	-1
6	2	4	0.41	213.1067888624	18.8025513433	3.8963611788	0	-4	-1
7	3	3	-0.82	155.6712985830	25.5758828239	14.3555580448	0	-5	2
8	3	4	0.41	155.1180683204	26.2447792285	13.8010215683	0	-5	2
9	3	4	0.41	156.0981818188	26.0886570502	15.1446003204	0	-5	2
10	4	3	-0.82	189.7631675857	28.4971810195	21.4138127378	0	1	-2
11	4	4	0.41	189.4792353673	28.6050972314	20.4555255612	0	1	-2
12	4	4	0.41	189.0521970699	27.9465952028	21.9265671762	0	1	-2
13	5	3	-0.82	169.5681443064	13.0151129493	37.1366830357	0	1	-1
14	5	4	0.41	169.6228477156	13.3218656495	38.0991256091	0	1	-1
15	5	4	0.41	170.3952760331	12.5386536869	36.9065790251	0	1	-1
16	6	3	-0.82	232.1789149318	17.4512369702	38.8236444540	0	-2	0
17	6	4	0.41	231.3346059181	16.8608003743	38.9879475473	0	-2	0
18	6	4	0.41	232.2846097622	17.4695370132	37.8101148215	0	-2	0
19	7	3	-0.82	236.9590771455	22.3453206504	30.1196814718	0	0	2
20	7	4	0.41	235.9450890056	22.2797277119	30.1082232667	0	0	2
21	7	4	0.41	237.1637563719	23.0842569183	30.8186430382	0	0	2
22	8	3	-0.82	143.6719064517	5.1223093429	29.7800880825	0	-4	0
23	8	4	0.41	144.1304167148	4.5089804128	30.4589181401	0	-4	0
24	8	4	0.41	144.4516821357	5.4208414498	29.1254838734	0	-4	0
25	9	3	-0.82	158.9485828121	25.4559690169	1.5441702848	0	0	-2
26	9	4	0.41	158.5342388542	25.9538780785	0.7100599209	0	0	-2
27	9	4	0.41	159.6403467207	24.8404297207	0.9989679185	0	0	-2
28	10	3	-0.82	179.5654801475	13.9519422054	23.6576605816	0	-5	2
29	10	4	0.41	180.5446189485	14.0931582580	24.0069045392	0	-5	2
30	10	4	0.41	179.2694630378	14.8957452396	23.4676841577	0	-5	2
31	11	3	-0.82	147.5287842766	13.8614819735	0.6245908161	0	-3	-1
32	11	4	0.41	146.9715865882	14.6037351652	0.1314134838	0	-3	-1
33	11	4	0.41	147.8045824862	14.2868062349	1.4947245360	0	-3	-1
34	12	3	-0.82	155.1786942617	11.3346517166	10.1265837535	0	-7	-3
35	12	4	0.41	155.4293967175	10.6286972660	10.8503486392	0	-7	-3
36	12	4	0.41	154.2765609265	11.6728039579	10.4600854116	0	-7	-3
37	13	3	-0.82	163.2221338928	33.1433802718	39.1706757654	0	-1	-2
38	13	4	0.41	163.5913877528	34.0084991559	39.5732552354	0	-1	-2
39	13	4	0.41	162.4250926137	33.1919338448	38.6174226749	0	-1	-2
40	14	3	-0.82	233.9491046133	24.5295000002	6.3579239322	0	-1	1
41	14	4	0.41	234.1572486015	23.9794771402	7.2080323945	0	-1	1
42	14	4	0.41	234.7873326656	24.8445237924	5.8720658707	0	-1	1
43	15	3	-0.82	237.2263828660	1.2960344994	5.3809574826	0	0	0
44	15	4	0.41	236.8399003597	2.0471532500	5.9334139736	0	0	0
45	15	4	0.41	237.5191973450	0.5968093474	6.1357704031	0	0	0
46	16	3	-0.82	243.9462750871	9.0910540463	13.5100742026	0	0	3
47	16	4	0.41	244.1006089774	8.0682219928	13.6358692575	0	0	3
48	16	4	0.41	243.2272856283	9.4112459671	14.1805960925	0	0	3
49	17	3	-0.82	156.4317453050	7.0655184131	37.4953394235	0	-3	1
50	17	4	0.41	155.8418843282	7.9197570057	37.6866674519	0	-3	1
51	17	4	0.41	156.3701023573	6.4940543322	38.3248537412	0	-3	1
52	18	3	-0.82	156.7523781506	21.3177615206	14.0151546484	0	0	0
53	18	4	0.41	156.2763678033	20.3494338879	13.9381581290	0	0	0
54	18	4	0.41	156.1219533702	21.8877628882	14.6772406232	0	0	0
55	19	3	-0.82	198.1361384152	18.3242038725	0.7699390547	0	-1	-1
56	19	4	0.41	197.8967624329	17.3343722878	0.8739763644	0	-1	-1
57	19	4	0.41	198.7319769885	18.3183412236	39.9143129080	0	-1	-2
58	20	3	-0.82	221.5378112920	15.9664784218	6.1256280488	0	-1	2
59	20	4	0.41	221.0104524416	16.6234012491	5.5481575095	0	-1	2
60	20	4	0.41	221.6467133414	14.9951215096	5.8011727614	0	-1	2
61	21	3	-0.82	254.9301694492	32.1078006594	2.2106723137	0	-3	-1
62	21	4	0.41	254.9412391778	31.2032106963	2.7151055943	0	-3	-1
63	21	4	0.41	254.8615467797	31.7735988383	1.1893999220	0	-3	-1
64	22	3	-0.82	210.4448434276	30.6830540889	29.3662089655	0	-4	-4
65	22	4	0.41	209.7624715096	29.9083461037	29.6270923185	0	-4	-4
66	22	4	0.41	211.3594064690	30.5773682477	29.7898232028	0	-4	-4
67	23	3	-0.82	209.9717973009	27.6832902569	32.8563377443	0	-2	2
68	23	4	0.41	210.8162870041	28.3059722661	32.6492416078	0	-2	2
69	23	4	0.41	209.6867348989	27.9077480821	33.8307585530	0	-2	2
70	24	3	-0.82	227.1495072978	26.9000024242	32.8226177763	0	0	-3
71	24	4	0.41	228.0645857152	27.4898548138	32.5953439504	0	0	-3
72	24	4	0.41	226.7966015562	27.1152554389	33.7876791835	0	0	-3
73	25	3	-0.82	244.4327693074	2.8786128341	34.4932782883	0	-5	-2
74	25	4	0.41	244.4791011571	3.4676857894	35.2815306949	0	-5	-2
75	25	4	0.41	245.3942999628	2.5950808510	34.1832218909	0	-5	-2
76	26	3	-0.82	203.8617683172	8.2357053450	10.3234846875	0	2	1
77	26	4	0.41	203.3351673252	8.0944319291	9.4356490320	0	2	1
78	26	4	0.41	203.1886727873	8.6124882311	11.0035809459	0	2	1
79	27	3	-0.82	198.5117948134	12.2792733777	9.2570376270	0	-3	-1
80	27	4	0.41	198.1373694887	13.0255955678	8.5443040988	0	-3	-1
81	27	4	0.41	199.1006614687	12.8123475579	9.9347670424	0	-3	-1
82	28	3	-0.82	230.7398171356	18.7907889063	20.9417747722	0	0	2
83	28	4	0.41	231.6908592407	19.0785320741	20.5389047948	0	0	2
84	28	4	0.41	230.9291284177	18.4541526061	21.9010962943	0	0	2
85	29	3	-0.82	251.9257121037	35.3318175130	28.4414209937	0	-6	-4
86	29	4	0.41	251.4857518574	35.7206689782	29.3017864800	0	-6	-4
87	29	4	0.41	251.2713362601	35.4111761874	27.5674754895	0	-6	-4
88	30	3	-0.82	187.7569540639	29.4160688753	19.1462683294	0	-5	-2
89	30	4	0.41	187.3317740898	30.3260041213	18.9615006719	0	-5	-2
90	30	4	0.41	187.1333744573	29.0639736013	19.9328055809	0	-5	-2
91	31	3	-0.82	236.0907856463	0.3626859835	12.0859167357	0	-1	0
92	31	4	0.41	236.9978566715	0.5987003442	12.4713224272	0	-1	0
93	31	4	0.41	235.6514042650	39.7067554090	12.7974302954	0	-2	0
94	32	3	-0.82	182.0754641590	16.3922147209	12.1699609364	0	-4	0
95	32	4	0.41	181.5451116313	17.1056688635	11.6865275553	0	-4	0
96	32	4	0.41	181.9806163260	15.5707153446	11.5542075448	0	-4	0
97	33	3	-0.82	207.3846518119	29.2937057301	9.9806681809	0	-3	-3
98	33	4	0.41	207.8043006139	28.3826262373	10.0846872165	0	-3	-3
99	33	4	0.41	207.8170165809	29.8237645859	10.7800772016	0	-3	-3
100	34	3	-0.82	251.1634440080	26.2595841161	16.3558504342	0	-1	-2
101	34	4	0.41	250.2811869396	25.7749232371	16.2071403620	0	-1	-2
102	34	4	0.41	251.1359850254	27.1056337790	16.9624441155	0	-1	-2
103	35	3	-0.82	197.8017568514	28.1164192405	21.9755875016	0	-1	1
104	35	4	0.41	198.2087987628	27.5657674922	21.2510845814	0	-1	1
105	35	4	0.41	198.1642861172	29.1303727943	21.8455649171	0	-1	1
106	36	3	-0.82	247.2813195822	3.5198591627	30.7546488707	0	-4	2
107	36	4	0.41	246.8523974629	4.4774964094	30.6754930382	0	-4	2
108	36	4	0.41	247.1775502734	3.2417635211	31.7460698999	0	-4	2
109	37	3	-0.82	210.1432054665	1.7889606638	26.3802417736	0	-1	1
110	37	4	0.41	209.7700484803	1.4168905968	27.3067158914	0	-1	1
111	37	4	0.41	209.5095976663	1.5423349143	25.6036614061	0	-1	1
112	38	3	-0.82	188.7985756757	12.0538612560	28.1323390525	0	-4	-2
113	38	4	0.41	188.5012313889	11.0999482500	28.3621469811	0	-4	-2
114	38	4	0.41	189.7852152623	11.9489547829	28.1279901557	0	-4	-2
115	39	3	-0.82	245.5706945602	8.1750139607	6.4852545047	0	-2	1
116	39	4	0.41	245.2382740090	9.1154925638	6.2003907429	0	-2	1
117	39	4	0.41	246.0460459041	7.6338174134	5.7390028331	0	-2	1
118	40	3	-0.82	255.0384257663	28.2840945377	34.7779219568	0	-1	1
119	40	4	0.41	255.8457319448	27.6503715316	34.8746094063	0	-1	1
120	40	4	0.41	254.3418060495	27.7370972964	35.3871631120	0	-1	1
121	41	3	-0.82	164.9397450554	16.6741998955	39.6886701148	0	-1	1
122	41	4	0.41	164.5784198353	16.5409383139	0.6804228151	0	-1	2
123	41	4	0.41	164.9281966870	17.6915121172	39.4588020685	0	-1	1
124	42	3	-0.82	210.4535212468	7.9154377885	35.8108201810	0	-2	1
125	42	4	0.41	210.5966133553	7.3421471962	34.9805566773	0	-2	1
126	42	4	0.41	210.4592993520	8.9269800384	35.5807546801	0	-2	1
127	43	3	-0.82	172.0111243956	18.6312365182	18.6916253607	0	-2	-4
128	43	4	0.41	172.1074559868	18.2917284019	17.7444391719	0	-2	-4
129	43	4	0.41	172.9732174204	18.8564585301	18.9974732280	0	-2	-4
130	44	3	-0.82	152.6397536282	12.3997301374	33.9258487897	0	-4	-2
131	44	4	0.41	153.1543505468	12.7686986499	33.1066465983	0	-4	-2
132	44	4	0.41	151.7826670413	11.9390115331	33.6063115700	0	-4	-2
133	45	3	-0.82	148.5596925425	10.1521317554	39.5817458027	0	-2	-1
134	45	4	0.41	149.1225630555	10.6368650256	38.9004884190	0	-2	-1
135	45	4	0.41	147.5847829323	10.5963415431	39.4941551490	0	-2	-1
136	46	3	-0.82	199.0641047862	6.4712700640	13.1975007125	0	1	-4
137	46	4	0.41	198.0467105879	6.6760688851	13.2658883126	0	1	-4
138	46	4	0.41	199.5000300457	6.8883050780	12.3440691478	0	1	-4
139	47	3	-0.82	154.3139258183	23.7700785267	26.1478209733	0	1	-2
140	47	4	0.41	154.5741444286	24.7426713175	26.2268959990	0	1	-2
141	47	4	0.41	153.8096733217	23.4821520118	26.9973585629	0	1	-2
142	48	3	-0.82	205.5311778201	21.4933493313	10.6815617948	0	-4	0
143	48	4	0.41	204.6762477030	21.9172905525	10.1892154881	0	-4	0
144	48	4	0.41	205.2230658142	20.6761973599	11.1931519105	0	-4	0
145	49	3	-0.82	205.6053116761	1.9766344355	29.6615038275	0	-2	-1
146	49	4	0.41	205.8076983819	2.9231809280	29.2074482938	0	-2	-1
147	49	4	0.41	206.3955574224	1.3196213404	29.4215590523	0	-2	-1
148	50	3	-0.82	156.6398975295	20.9902202409	20.9418936833	0	5	0
149	50	4	0.41	156.4090048345	20.0401706161	20.6604460979	0	5	0
150	50	4	0.41	156.6301153966	21.1028711499	21.9778730566	0	5	0
151	51	3	-0.82	157.3342993874	17.0496403899	21.8816913486	0	-5	-4
152	51	4	0.41	157.7138674333	16.1281032706	21.7268065953	0	-5	-4
153	51	4	0.41	158.2449918706	17.5323463811	22.0808859196	0	-5	-4
154	52	3	-0.82	189.9979634070	18.1912152093	4.9750649576	0	7	5
155	52	4	0.41	189.6855031348	17.9912215699	5.8835000793	0	7	5
156	52	4	0.41	190.0771305806	19.1972893537	5.0120346942	0	7	5
157	53	3	-0.82	260.6784324095	0.7721521605	9.4961122664	0	2	1
158	53	4	0.41	261.4815440093	1.4626291816	9.6065285441	0	2	1
159	53	4	0.41	260.1998459651	0.3375892516	10.3220253840	0	2	1
160	54	3	-0.82	181.7427630914	9.3123457434	1.9364129160	0	-5	-1
161	54	4	0.41	182.2155909066	9.6830434048	2.7728436305	0	-5	-1
162	54	4	0.41	182.1320517175	9.8956346114	1.1345280130	0	-5	-1
163	55	3	-0.82	159.9887713107	30.9137288643	38.5964370274	0	-1	1
164	55	4	0.41	160.3382375033	31.1496191435	39.5002294780	0	-1	1
165	55	4	0.41	160.1748817883	31.6945800871	37.9882950047	0	-1	1
166	56	3	-0.82	253.5439362287	31.5615846827	11.3569463212	0	0	-1
167	56	4	0.41	254.2533186771	31.6934238286	12.1326128819	0	0	-1
168	56	4	0.41	253.2162771162	30.5870984909	11.5045058733	0	0	-1
169	57	3	-0.82	171.7373036419	7.8428961658	22.7437607501	0	3	-1
170	57	4	0.41	171.3662901813	8.4355410063	23.5180195369	0	3	-1
171	57	4	0.41	170.9460749473	7.3788184821	22.2694012873	0	3	-1
172	58	3	-0.82	243.0226594204	19.1036481013	37.1296354797	0	7	-1
173	58	4	0.41	242.0381524042	19.4128769073	37.1913469981	0	7	-1
174	58	4	0.41	243.3130079416	19.3941603796	38.0413036681	0	7	-1
175	59	3	-0.82	202.1417333760	3.7212336840	26.0858932549	0	3	-3
176	59	4	0.41	201.9909717271	4.2803055794	25.2190330095	0	3	-3
177	59	4	0.41	201.3288232627	3.6384564668	26.6632927448	0	3	-3
178	60	3	-0.82	202.2370684553	30.1324045974	36.0763338380	0	0	0
179	60	4	0.41	201.2404370951	30.0923457715	35.9893503258	0	0	0
180	60	4	0.41	202.6426532376	29.6501670572	35.2842521684	0	0	0
181	61	3	-0.82	204.4889119986	0.2456015484	2.9839311143	0	0	2
182	61	4	0.41	205.2139820087	39.5402479464	2.8609354002	0	-1	2
183	61	4	0.41	203.5441181079	39.8133090233	2.7071573555	0	-1	2
184	62	3	-0.82	141.0954391963	39.1123360864	31.4911491912	0	-2	-2
185	62	4	0.41	141.1345194452	0.1221563246	31.2714115619	0	-1	-2
186	62	4	0.41	140.4332742564	39.1379358349	32.2542357691	0	-2	-2
187	63	3	-0.82	241.8295760216	29.8973461836	20.6507080733	0	-1	-1
188	63	4	0.41	242.1713408011	30.8459470391	20.4406096944	0	-1	-1
189	63	4	0.41	241.3885535934	30.0167103241	21.5625943979	0	-1	-1
190	64	3	-0.82	162.1068854898	28.6718958580	21.8417977667	0	-4	-4
191	64	4	0.41	162.4305025816	29.2624361322	22.5871481131	0	-4	-4
192	64	4	0.41	161.0579178338	28.4773389218	21.7986702335	0	-4	-4
193	65	3	-0.82	235.0216740807	36.1970863749	15.3039710668	0	1	-3
194	65	4	0.41	234.3292044207	36.5390093094	15.9669279413	0	1	-3
195	65	4	0.41	235.5649938307	35.3877469184	15.7753162271	0	1	-3
196	66	3	-0.82	224.1019930105	15.1087697607	23.9464998858	0	3	-1
197	66	4	0.41	223.5071251835	14.2963377699	24.2799629823	0	3	-1
198	66	4	0.41	224.4676229047	15.6672682653	24.7681436933	0	3	-1
199	67	3	-0.82	147.3034735087	15.8347551826	31.6548531792	0	-4	-4
200	67	4	0.41	148.0506881976	16.4646200656	31.3900150017	0	-4	-4
201	67	4	0.41	146.4651911863	16.3739196331	31.5760285385	0	-4	-4
202	68	3	-0.82	219.8689947146	25.8328371470	11.9942509172	0	-2	-4
203	68	4	0.41	220.6318496680	25.5501610387	11.4139814859	0	-2	-4
204	68	4	0.41	220.0489439555	25.8312150036	12.9958976355	0	-2	-4
205	69	3	-0.82	143.2152297369	29.5752730922	10.5235407768	0	-3	1
206	69	4	0.41	143.8744371968	29.1169649904	9.8917721535	0	-3	1
207	69	4	0.41	143.0201876947	28.8738382096	11.2310923078	0	-3	1
208	70	3	-0.82	257.3831029728	13.7120737307	11.5774772081	0	-4	-1
209	70	4	0.41	256.8322106236	14.5044556316	11.3257364964	0	-4	-1
210	70	4	0.41	257.5654711125	13.5340277599	12.6171359201	0	-4	-1
211	71	3	-0.82	143.8394194769	22.3430722091	20.3730434242	0	4	0
212	71	4	0.41	144.5234311359	23.1213645783	20.2104724154	0	4	0
213	71	4	0.41	143.4913048144	22.0965554676	19.4744208827	0	4	0
214	72	3	-0.82	234.3837225270	5.3875624149	31.4973742960	0	1	-4
215	72	4	0.41	234.2029352157	4.5247054375	31.0360326495	0	1	-4
216	72	4	0.41	235.2266445206	5.8689501552	31.1436300620	0	1	-4
217	73	3	-0.82	201.6526590894	28.9857159304	38.7791112028	0	-2	-3
218	73	4	0.41	201.6389508910	29.4086271976	37.8821377850	0	-2	-3
219	73	4	0.41	202.0086117174	29.6533680579	39.5500375768	0	-2	-3
220	74	3	-0.82	149.8600358274	6.6712514194	6.2763393329	0	-2	-3
221	74	4	0.41	149.9203991130	6.8540811288	5.3105818990	0	-2	-3
222	74	4	0.41	150.5927665090	7.3223305828	6.5638069786	0	-2	-3
223	75	3	-0.82	194.9571489078	0.1362502731	19.2991812209	0	2	-1
224	75	4	0.41	194.2777168289	0.3950564439	18.6296223573	0	2	-1
225	75	4	0.41	194.7222302727	0.5233439625	20.1842368100	0	2	-1
226	76	3	-0.82	241.3625672301	32.6799329908	27.5524182611	0	2	1
227	76	4	0.41	242.2558087925	32.7041366843	28.0470182101	0	2	1
228	76	4	0.41	241.1354216347	33.6819359711	27.2564119293	0	2	1
229	77	3	-0.82	160.0514514458	18.5975989145	21.8331372267	0	-1	1
230	77	4	0.41	160.2549827303	18.0234347654	22.6404140253	0	-1	1
231	77	4	0.41	160.4157662532	19.5247140380	22.1097939196	0	-1	1
232	78	3	-0.82	146.9214603075	23.9423810966	2.4497441946	0	-2	-1
233	78	4	0.41	147.1433337678	22.9882192251	2.5672106158	0	-2	-1
234	78	4	0.41	146.9226954327	24.1487971419	1.4098844182	0	-2	-1
235	79	3	-0.82	173.0032068867	15.9616717588	7.3730776764	0	-3	0
236	79	4	0.41	173.0653292472	16.0146965620	8.4550885530	0	-3	0
237	79	4	0.41	172.9352945093	15.0290402094	7.0148717593	0	-3	0
238	80	3	-0.82	177.6396410703	20.2941817917	27.4667169305	0	-3	-2
239	80	4	0.41	177.9112093425	19.3967365028	27.8420196875	0	-3	-2
240	80	4	0.41	176.6511453044	20.5168746185	27.7604060768	0	-3	-2
241	81	3	-0.82	239.9143125035	24.7488475678	17.2623827251	0	-3	-3
242	81	4	0.41	240.5489206582	25.5385002106	17.5665172087	0	-3	-3
243	81	4	0.41	240.1036932486	24.5689010124	16.3086224105	0	-3	-3
244	82	3	-0.82	143.9931837008	11.7292431373	29.6908480593	0	-3	0
245	82	4	0.41	143.1834473811	12.3532203799	29.8093675907	0	-3	0
246	82	4	0.41	144.1019275324	10.9910632283	30.4515462999	0	-3	0
247	83	3	-0.82	210.8138423631	31.4377892002	25.6241116688	0	-1	-2
248	83	4	0.41	210.9355373745	30.7360334538	26.3527921944	0	-1	-2
249	83	4	0.41	210.1084245761	30.9796924729	25.0831669051	0	-1	-2
250	84	3	-0.82	215.2729913705	1.8056649043	28.4734014868	0	4	-2
251	84	4	0.41	215.7480931923	0.9008317102	28.7538336873	0	4	-2
252	84	4	0.41	214.2611447876	1.7890832617	28.5120396472	0	4	-2
253	85	3	-0.82	229.0165710482	16.3149625802	2.5249481018	0	-3	1
254	85	4	0.41	229.4694279830	15.5788732659	3.0586703449	0	-3	1
255	85	4	0.41	228.4080190652	16.7568507161	3.2283241467	0	-3	1
256	86	3	-0.82	173.7759047307	30.3813058993	9.4884513235	0	0	1
257	86	4	0.41	173.7193138502	31.2243448971	8.8542145749	0	0	1
258	86	4	0.41	174.7795107082	30.0406580897	9.3518095719	0	0	1
259	87	3	-0.82	199.1284019297	21.4280487511	24.0011230646	0	2	-3
260	87	4	0.41	198.8523725059	22.3781685843	24.1911587566	0	2	-3
261	87	4	0.41	200.1693255812	21.3272023836	23.9802641199	0	2	-3
262	88	3	-0.82	219.7182963790	8.2985122789	34.3503842954	0	0	0
263	88	4	0.41	218.9356733277	8.8180012166	34.1173781877	0	0	0
264	88	4	0.41	220.5163960515	8.6990546483	33.9577572160	0	0	0
265	89	3	-0.82	183.9426758568	31.7666553315	14.6638683980	0	-2	-2
266	89	4	0.41	183.0453215510	31.8134170866	14.1707639751	0	-2	-2
267	89	4	0.41	184.7091354706	32.0031539629	14.0144703793	0	-2	-2
268	90	3	-0.82	216.4242744773	23.9725978832	36.8987557799	0	0	3
269	90	4	0.41	216.3222709442	23.3107767273	37.6991214674	0	0	3
270	90	4	0.41	216.5287003656	24.9503803680	37.2227411902	0	0	3
271	91	3	-0.82	169.4288546251	24.6967649669	13.2388892352	0	-1	-1
272	91	4	0.41	169.8650380648	25.3361905061	12.5429496269	0	-1	-1
273	91	4	0.41	168.5731485112	25.2852112150	13.3928052970	0	-1	-1
274	92	3	-0.82	256.9898978596	4.8960546890	26.7004234029	0	4	-1
275	92	4	0.41	256.1881832895	4.5399540664	26.1566814181	0	4	-1
276	92	4	0.41	257.3548101823	4.0742806075	27.1067406409	0	4	-1
277	93	3	-0.82	165.1982070250	26.9029427315	21.2799906090	0	-1	-1
278	93	4	0.41	165.8113134342	26.5122637740	20.5646722449	0	-1	-1
279	93	4	0.41	164.3264833775	27.1481842340	20.9912632564	0	-1	-1
280	94	3	-0.82	179.3881557230	22.0239546476	15.2496974759	0	-1	-1
281	94	4	0.41	180.3234126173	21.6400331434	15.5320453356	0	-1	-1
282	94	4	0.41	178.7807102143	22.2555351246	16.0480358121	0	-1	-1
283	95	3	-0.82	140.6200356940	2.3944894600	33.9025374417	0	1	-2
284	95	4	0.41	140.0676275593	2.3448875640	34.7812449057	0	1	-2
285	95	4	0.41	141.3870395080	3.0812979231	34.0203844470	0	1	-2
286	96	3	-0.82	147.3948109046	8.0062544481	3.7042796433	0	0	2
287	96	4	0.41	147.9992450925	7.1769440130	3.8019410706	0	0	2
288	96	4	0.41	147.9062337856	8.7314861181	4.2588464422	0	0	2
289	97	3	-0.82	237.3463915884	16.2649988944	12.6404318277	0	-1	-1
290	97	4	0.41	237.4515457293	17.2714510585	12.3418927008	0	-1	-1
291	97	4	0.41	237.4501259748	16.1886458631	13.6618884485	0	-1	-1
292	98	3	-0.82	176.1736295749	32.0250056051	22.7362303854	0	-3	-3
293	98	4	0.41	176.0120040106	31.0921720500	22.3773082815	0	-3	-3
294	98	4	0.41	176.7870581682	32.4504025293	22.0353825389	0	-3	-3
295	99	3	-0.82	158.9965763272	1.1511591339	26.3527510543	0	-4	-3
296	99	4	0.41	159.7046322831	1.8862094176	26.3031647492	0	-4	-3
297	99	4	0.41	158.8942123884	0.9242383884	27.3739834699	0	-4	-3
298	100	3	-0.82	216.6927597393	35.5958251708	31.8102379992	0	-2	0
299	100	4	0.41	217.2907308706	36.3569688657	31.4631749972	0	-2	0
300	100	4	0.41	217.1244145796	34.8155321136	31.3116973121	0	-2	0
301	101	3	-0.82	154.4246279834	27.3007618080	16.3322686617	0	-3	-2
302	101	4	0.41	153.8300557170	26.3812390497	16.3075099175	0	-3	-2
303	101	4	0.41	154.6555534181	27.8339732983	15.4384932294	0	-3	-2
304	102	3	-0.82	230.2852790159	3.6044138829	9.5915075330	0	5	0
305	102	4	0.41	230.4885103787	4.0640620590	8.6808283586	0	5	0
306	102	4	0.41	230.7531511592	4.1338952890	10.3339322822	0	5	0
307	103	3	-0.82	205.9473708763	25.0547891818	7.7956151951	0	0	2
308	103	4	0.41	206.6712247325	24.3171536247	7.7375677914	0	0	2
309	103	4	0.41	206.0205522075	25.5429662248	6.8832584176	0	0	2
310	104	3	-0.82	190.8258501801	31.4901582626	29.4775612551	0	-1	-2
311	104	4	0.41	191.0379712254	32.2151255560	28.7575803575	0	-1	-2
312	104	4	0.41	191.1840461919	31.7990520731	30.3867493911	0	-1	-2
313	105	3	-0.82	185.6125355464	34.2468011511	24.1408813371	0	-3	0
314	105	4	0.41	185.4498919109	33.3548605212	24.6059275904	0	-3	0
315	105	4	0.41	185.8577328728	34.0497298772	23.1331624727	0	-3	0
316	106	3	-0.82	231.1087455012	31.5440021273	33.7864551163	0	5	-1
317	106	4	0.41	230.9452561600	31.2182267484	34.7357316825	0	5	-1
318	106	4	0.41	230.2089277851	31.7060873329	33.3094105681	0	5	-1
319	107	3	-0.82	190.9110043965	18.6280744451	0.4225426644	0	1	2
320	107	4	0.41	190.4236502098	18.0833493900	1.1757024214	0	1	2
321	107	4	0.41	190.6923916250	19.6098974077	0.5409610389	0	1	2
322	108	3	-0.82	202.2618409053	3.4284548072	30.9770815210	0	-2	-3
323	108	4	0.41	202.4926049361	2.6761431283	30.2697997185	0	-2	-3
324	108	4	0.41	203.2085687263	3.4204933019	31.4262133502	0	-2	-3
325	109	3	-0.82	213.9710661615	12.7327473987	34.1095271275	0	1	-1
326	109	4	0.41	214.3930812297	12.3759244805	33.2254971142	0	1	-1
327	109	4	0.41	213.7500736804	11.8342723707	34.6055837259	0	1	-1
328	110	3	-0.82	248.6102791767	24.0636069807	32.7165535994	0	-1	1
329	110	4	0.41	247.9803343212	23.3367093131	33.1222949873	0	-1	1
330	110	4	0.41	248.4936339094	25.0077992343	33.0996275015	0	-1	1
331	111	3	-0.82	232.9863591846	33.9740467084	12.4989082581	0	1	3
332	111	4	0.41	233.0836428846	33.7831808943	11.4999139810	0	1	3
333	111	4	0.41	233.2617589886	33.1094541195	13.0053380892	0	1	3
334	112	3	-0.82	202.2133543430	10.9381797430	5.7178536325	0	3	-4
335	112	4	0.41	203.1839529726	10.8294160932	6.0547596078	0	3	-4
336	112	4	0.41	201.5704756230	10.5931447354	6.4174239411	0	3	-4
337	113	3	-0.82	224.7784557126	1.9622928463	21.3522071445	0	-2	1
338	113	4	0.41	224.3664309773	2.8897680306	21.2114523391	0	-2	1
339	113	4	0.41	224.7455192176	2.0809556221	22.3350630498	0	-2	1
340	114	3	-0.82	258.2559235387	7.0230623552	27.7099677286	0	-1	0
341	114	4	0.41	257.6297969716	6.2623367559	27.4287481772	0	-1	0
342	114	4	0.41	259.1735395924	6.6205559954	27.9951468886	0	-1	0
343	115	3	-0.82	225.8021370839	39.0611844015	0.9046798651	0	3	-1
344	115	4	0.41	225.2681964951	38.2054094649	1.1933437470	0	3	-1
345	115	4	0.41	225.4272659321	39.7681142592	1.5860614459	0	3	-1
346	116	3	-0.82	139.6417490747	1.5476076199	24.3134848270	0	-3	0
347	116	4	0.41	138.9246438761	2.1521778880	24.6908991968	0	-3	0
348	116	4	0.41	140.2492755225	1.3255316551	25.0798427884	0	-3	0
349	117	3	-0.82	197.9908399152	32.1117872736	4.7066125549	0	0	1
350	117	4	0.41	197.4888235967	31.8798924461	3.8199342299	0	0	1
351	117	4	0.41	198.5002197069	32.9924492569	4.5992643781	0	0	1
352	118	3	-0.82	162.6723504560	11.4120016058	38.1019083496	0	5	-4
353	118	4	0.41	162.1805815500	11.0771361794	37.2541175087	0	5	-4
354	118	4	0.41	163.6022254877	11.7242445355	37.9102495218	0	5	-4
355	119	3	-0.82	191.9396361922	21.3673608604	21.7664550228	0	-3	-1
356	119	4	0.41	192.0654356309	20.3725710429	21.9974527280	0	-3	-1
357	119	4	0.41	192.7123659822	21.8745830495	22.1835556427	0	-3	-1
358	120	3	-0.82	187.5951043857	2.1565386906	4.5334518681	0	-1	2
359	120	4	0.41	186.8810216629	1.4137588266	4.4961493182	0	-1	2
360	120	4	0.41	188.2971686146	2.0055861105	3.8088499580	0	-1	2
361	121	3	-0.82	169.5892620620	13.7290843388	31.0361120290	0	-2	0
362	121	4	0.41	169.9914382430	14.7190223094	31.0891292488	0	-2	0
363	121	4	0.41	168.7838168855	13.8572309963	31.6796440191	0	-2	0
364	122	3	-0.82	226.2652129015	27.7487573239	8.3813477255	0	0	1
365	122	4	0.41	225.7449522479	28.1923200833	7.5505671489	0	0	1
366	122	4	0.41	226.3610885932	28.3738528049	9.1162241020	0	0	1
367	123	3	-0.82	143.3534653024	8.3175007112	11.7549573851	0	-2	-1
368	123	4	0.41	144.1792836038	8.3993689773	11.1447039739	0	-2	-1
369	123	4	0.41	143.2617919012	9.2097808989	12.2748453330	0	-2	-1
370	124	3	-0.82	190.7777280838	9.6012330771	28.4800123239	0	0	-1
371	124	4	0.41	191.0305850737	9.8631217880	29.4472268237	0	0	-1
372	124	4	0.41	189.8737634062	9.1773073517	28.5409891623	0	0	-1
373	125	3	-0.82	203.6243355317	26.7023979829	20.7853469611	0	-2	-1
374	125	4	0.41	203.6534071917	27.7136399738	20.6754982997	0	-2	-1
375	125	4	0.41	204.0669859359	26.5054368495	21.7147874558	0	-2	-1
376	126	3	-0.82	202.8294096155	25.6389179520	12.8034242555	0	-1	0
377	126	4	0.41	201.9682352142	25.6468869000	13.3474355657	0	-1	0
378	126	4	0.41	203.5382304053	25.6923417767	13.5191831878	0	-1	0
379	127	3	-0.82	248.9193819523	38.7345183276	16.1874101803	0	-2	0
380	127	4	0.41	249.3162603911	39.6773933154	16.4673920743	0	-2	0
381	127	4	0.41	248.0264905441	39.0609660016	15.7678725584	0	-2	0
382	128	3	-0.82	157.6788568341	22.5854655518	2.8953490235	0	-3	2
383	128	4	0.41	158.6451650386	22.4153029529	2.3797549316	0	-3	2
384	128	4	0.41	156.9656527345	21.9980723495	2.4210140373	0	-3	2
385	129	3	-0.82	184.0848737179	4.1417397221	28.5617457577	0	-1	-1
386	129	4	0.41	183.4169955828	4.6580431310	28.0080533208	0	-1	-1
387	129	4	0.41	183.9210019725	4.2006282387	29.5971100178	0	-1	-1
388	130	3	-0.82	160.7463745660	6.8649599556	6.8042531139	0	-2	-1
389	130	4	0.41	161.6362357052	7.3089964732	7.0288051809	0	-2	-1
390	130	4	0.41	160.8455675161	5.8685373436	6.7551846977	0	-2	-1
391	131	3	-0.82	210.2363732686	28.2272361740	39.2807883541	0	0	-1
392	131	4	0.41	211.1853052121	27.9228519348	39.0086212367	0	0	-1
393	131	4	0.41	209.8462543603	27.3463523342	39.6816154035	0	0	-1
394	132	3	-0.82	225.9510634422	26.4960286269	30.2245944579	0	2	-3
395	132	4	0.41	226.4276316518	26.8015678860	31.0811496073	0	2	-3
396	132	4	0.41	226.5663605203	26.8251710244	29.4327772599	0	2	-3
397	133	3	-0.82	233.0571162464	35.6152683669	31.8522652659	0	-2	-2
398	133	4	0.41	233.5693303872	36.4573286066	32.1372374807	0	-2	-2
399	133	4	0.41	233.1717025105	35.4492349641	30.8347281010	0	-2	-2
400	134	3	-0.82	234.0010971180	2.1627743493	19.2911030793	0	1	1
401	134	4	0.41	233.7489414969	3.1781631428	19.3391560406	0	1	1
402	134	4	0.41	233.4600964763	1.8491474414	18.4541706327	0	1	1
403	135	3	-0.82	153.9974948267	32.8065687231	36.1961595534	0	-1	-3
404	135	4	0.41	153.9657147088	33.7735243521	36.5265198791	0	-1	-3
405	135	4	0.41	153.9132548580	32.2524790732	37.0465214880	0	-1	-3
406	136	3	-0.82	215.2627409893	17.4677537568	1.7318326170	0	-4	1
407	136	4	0.41	214.8291587628	16.7498984221	1.1209651121	0	-4	1
408	136	4	0.41	214.6703435269	17.6587695216	2.5799727116	0	-4	1
409	137	3	-0.82	186.8466121604	26.8337114669	36.3327696319	0	1	-1
410	137	4	0.41	185.9324387311	27.2346059835	36.6541919033	0	1	-1
411	137	4	0.41	186.6532183608	25.9025688982	35.8734996050	0	1	-1
412	138	3	-0.82	172.1545466532	39.5394770139	15.3407081810	0	-5	-2
413	138	4	0.41	172.7831540998	38.7231057224	15.2900618204	0	-5	-2
414	138	4	0.41	172.2428858932	0.1886024653	16.1635581661	0	-4	-2
415	139	3	-0.82	143.3431138566	21.1455411807	36.3624964284	0	-2	0
416	139	4	0.41	143.8931965899	20.2963350518	36.4895900712	0	-2	0
417	139	4	0.41	142.7104092437	20.9275967170	35.5916532371	0	-2	0
418	140	3	-0.82	201.0445316332	15.9448601852	35.0851066402	0	-2	-1
419	140	4	0.41	200.9130944371	15.0634569193	34.6405039191	0	-2	-1
420	140	4	0.41	201.8079214011	16.4530413366	34.5927421708	0	-2	-1
421	141	3	-0.82	189.5684295708	2.5430117584	19.1793133011	0	-4	-2
422	141	4	0.41	189.6632557499	2.1981796846	20.1129813964	0	-4	-2
423	141	4	0.41	189.0460931456	1.9170096399	18.5768905468	0	-4	-2
424	142	3	-0.82	194.0018438519	34.6613020620	14.0185540054	0	-1	0
425	142	4	0.41	194.8845539602	35.1380873933	13.9754027034	0	-1	0
426	142	4	0.41	193.3059011986	35.3294061118	13.6133618694	0	-1	0
427	143	3	-0.82	192.3115252372	17.5721413623	35.4482634244	0	0	-4
428	143	4	0.41	193.2350448426	17.2691442093	35.1668166192	0	0	-4
429	143	4	0.41	192.2748141734	17.8349498203	36.4314328025	0	0	-4
430	144	3	-0.82	154.1840496738	34.9885753176	17.9051741346	0	-1	-1
431	144	4	0.41	154.3630115693	35.0829294374	18.8969833087	0	-1	-1
432	144	4	0.41	154.7973658148	34.1824492874	17.6841341004	0	-1	-1
433	145	3	-0.82	169.9906646103	20.6620448472	16.8775408537	0	4	-3
434	145	4	0.41	170.1101669451	20.4272563670	17.8756307340	0	4	-3
435	145	4	0.41	169.7519700856	21.6758948517	17.0156971482	0	4	-3
436	146	3	-0.82	198.7902259442	36.2262795860	9.7163511051	0	-1	0
437	146	4	0.41	198.5966881805	37.2167516699	10.0226160152	0	-1	0
438	146	4	0.41	198.5168360829	35.5657669975	10.4121121652	0	-1	0
439	147	3	-0.82	201.0329365665	9.8968838261	8.0777528593	0	0	3
440	147	4	0.41	201.2742215487	8.8890477335	8.2843501052	0	0	3
441	147	4	0.41	200.0501123401	10.0640197725	8.3006339713	0	0	3
442	148	3	-0.82	192.4128150813	35.6058688783	33.5320283542	0	0	-2
443	148	4	0.41	193.0423889968	36.0450211609	32.8352165016	0	0	-2
444	148	4	0.41	192.4509552260	36.0792611210	34.4380868358	0	0	-2
445	149	3	-0.82	255.9000371097	5.3150493496	36.9217434482	0	0	-3
446	149	4	0.41	255.7864551285	5.8196770379	37.7674505140	0	0	-3
447	149	4	0.41	255.3466555700	5.7611958815	36.1683500629	0	0	-3
448	150	3	-0.82	215.6880815233	23.7553052988	1.4793005301	0	-1	-2
449	150	4	0.41	215.8114270476	23.4463469064	2.4431213995	0	-1	-2
450	150	4	0.41	214.8458567124	24.3076683675	1.5181888790	0	-1	-2
451	151	3	-0.82	221.2868102909	39.3469149935	17.7623543431	0	-2	0
452	151	4	0.41	220.8138920459	0.0187102415	17.1888961042	0	-1	0
453	151	4	0.41	221.9628428866	38.8965481010	17.0510197474	0	-2	0
454	152	3	-0.82	173.8803055067	37.7098235608	14.7949044337	0	-1	-2
455	152	4	0.41	174.5525308089	37.4519238877	15.5268273323	0	-1	-2
456	152	4	0.41	173.2021622701	36.9652831478	14.6469164566	0	-1	-2
457	153	3	-0.82	257.3386492856	22.4176153473	16.1628977937	0	5	0
458	153	4	0.41	256.8222382055	21.9487368497	15.4174922389	0	5	0
459	153	4	0.41	257.8563520745	23.1529785959	15.6427190075	0	5	0
460	154	3	-0.82	197.1064629077	21.2441228025	10.3340280305	0	-3	0
461	154	4	0.41	197.5265363139	20.3795422008	10.6756790191	0	-3	0