NaCl starting structure

8 atoms
4 atom types
0 bonds
1 bond types
0 angles
1 angle types

0.0000000000000000e+00 5.6400000000000000e+00 xlo xhi
0.0000000000000000e+00 5.6400000000000000e+00 ylo yhi
0.0000000000000000e+00 5.6400000000000000e+00 zlo zhi
0.0000000000000000e+00 0.0000000000000000e+00 0.0000000000000000e+00 xy xz yz

Masses

1 22.98977
2 35.453
3 16
4 1.01

Atoms # full

1 0 1  1.0 1.41 1.41 1.41 0 0 0
2 0 2 -1.0 4.23 1.41 1.41 0 0 0
3 0 1  1.0 4.23 4.23 1.41 0 0 0
4 0 2 -1.0 1.41 4.23 1.41 0 0 0
5 0 1  1.0 4.23 1.41 4.23 0 0 0
6 0 2 -1.0 1.41 1.41 4.23 0 0 0
7 0 1  1.0 1.41 4.23 4.23 0 0 0
8 0 2 -1.0 4.23 4.23 4.23 0 0 0
