LAMMPS data file via write_data, version 23 Jun 2022, timestep = 600000

13824 atoms
4 atom types
0 bonds
1 bond types
0 angles
1 angle types

0 69.36675964225992 xlo xhi
0 69.36675964225992 ylo yhi
0 69.36675964225992 zlo zhi
0 0 0 xy xz yz

Masses

1 22.98977
2 35.453
3 16
4 1.01

Atoms # full

1 0 1 1 1.4122015814192472 1.5270745520049078 1.3509976218359263 0 0 0
1153 0 1 1 1.4896250166791598 1.5308556524383248 6.992425990614362 0 0 0
2305 0 1 1 1.3438745794183002 1.435132598748262 12.82238348279603 0 0 0
97 0 1 1 1.4249432271689888 7.243347978864932 1.516341450579567 0 0 0
1249 0 1 1 1.510208745668104 7.06859733939651 7.181880626681151 0 0 0
2401 0 1 1 1.5071000465048905 6.995090787744086 13.140920377056052 0 0 0
193 0 1 1 1.473502230117989 13.2185335339956 1.6232975699789645 0 0 0
1345 0 1 1 1.5397761223272062 13.01568131508254 7.253723230046051 0 0 0
2497 0 1 1 1.4257010128997314 13.204094870835487 12.918504423673918 0 0 0
9 0 1 1 7.355070969008158 1.6801592669174603 1.3529593981195136 0 0 0
1161 0 1 1 7.296523365887793 1.5036549128882106 7.201226183113777 0 0 0
2313 0 1 1 7.001414171027185 1.420374330997141 13.174518683425806 0 0 0
105 0 1 1 7.108835902575888 7.347217706412739 1.2231247100041382 0 0 0
1257 0 1 1 7.26817991013075 7.198281757373657 7.246103963217881 0 0 0
2409 0 1 1 7.362765438514499 7.182436784224826 13.010617458855904 0 0 0
201 0 1 1 7.244761521428747 13.004580070591503 1.4067967382480315 0 0 0
1353 0 1 1 7.200512155914483 12.934684418140298 7.218788894773064 0 0 0
2505 0 1 1 7.196449241475909 12.980771641774245 13.027550801537059 0 0 0
17 0 1 1 13.205168683292122 1.577348094528029 1.5827761749752054 0 0 0
1169 0 1 1 13.102920224169656 1.476352440300617 7.228470053942843 0 0 0
2321 0 1 1 13.17141166507058 1.4529975373764707 13.204982328421396 0 0 0
113 0 1 1 13.12093331651396 7.290732274262852 1.5329854915148111 0 0 0
1265 0 1 1 12.921636412537012 7.270214623988121 7.241728332420761 0 0 0
2417 0 1 1 13.008343961251034 7.169908598339477 13.00203975616508 0 0 0
209 0 1 1 12.970106361462065 12.974435803979269 1.4741989449133608 0 0 0
1361 0 1 1 13.250140888587017 13.314711322974528 7.144167279402861 0 0 0
2513 0 1 1 12.918027445398302 13.065471040383128 12.895803782834834 0 0 0
2 0 2 -1 4.188812441731805 1.5951209549322927 1.5913900783976085 0 0 0
1154 0 2 -1 4.433970664303164 1.5543074676448354 7.151099549054465 0 0 0
2306 0 2 -1 4.313622961173428 1.4706372700896464 12.795610109713431 0 0 0
98 0 2 -1 4.274565064762018 7.454396401754642 1.3287688242285238 0 0 0
1250 0 2 -1 4.37207192535047 7.263116307446093 7.201565452174704 0 0 0
2402 0 2 -1 4.320560036265402 7.092423441361636 13.155207968205492 0 0 0
194 0 2 -1 4.444642049930919 13.175797846565974 1.6013835371938039 0 0 0
1346 0 2 -1 4.210839370557106 12.907638948918894 7.136960562905647 0 0 0
2498 0 2 -1 4.395979853669706 13.009135149175762 13.0359028903363 0 0 0
10 0 2 -1 10.22120527284871 1.6215961177791642 1.6023204150872026 0 0 0
1162 0 2 -1 10.289838165587001 1.4120589491980278 7.286845976740183 0 0 0
2314 0 2 -1 10.059089162001907 1.3634111948574883 12.901574286853055 0 0 0
106 0 2 -1 10.09176827275926 7.403757632342264 1.248969695761046 0 0 0
1258 0 2 -1 10.076056040068408 7.294889306426044 7.140302780667547 0 0 0
2410 0 2 -1 10.177322860573904 7.089840382310283 12.962006000743601 0 0 0
202 0 2 -1 10.027215232326146 13.148356837011919 1.551086757728744 0 0 0
1354 0 2 -1 10.25186483858143 13.201895815059036 7.222540889142645 0 0 0
2506 0 2 -1 9.992236663840764 12.872544947350178 12.872962117297599 0 0 0
18 0 2 -1 15.845983931573635 1.4358461264649758 1.442228814513796 0 0 0
1170 0 2 -1 15.997468483498286 1.3978626665774825 7.169021258613702 0 0 0
2322 0 2 -1 15.92670760744564 1.2603197708666287 13.157211559097307 0 0 0
114 0 2 -1 15.956821255945304 7.290398188612304 1.313216025184245 0 0 0
1266 0 2 -1 15.90918979737388 7.226473142365603 7.096892301966472 0 0 0
2418 0 2 -1 15.96362332701708 7.2674298229353465 12.995614229973404 0 0 0
210 0 2 -1 16.06183957369579 12.958886907205843 1.4385946735487174 0 0 0
1362 0 2 -1 16.117425597942013 13.000953327983874 7.0958298496029 0 0 0
2514 0 2 -1 15.893827548147927 12.955501036675024 12.82773102827818 0 0 0
4 0 2 -1 1.4083389685524987 4.376440676563883 1.2333433868169978 0 0 0
1156 0 2 -1 1.4405946710197806 4.332122165292891 7.128019543557405 0 0 0
2308 0 2 -1 1.2919009628518328 4.273624818206743 12.969415702265811 0 0 0
100 0 2 -1 1.3747558465837644 10.268750247165372 1.5435826257527998 0 0 0
1252 0 2 -1 1.375042010668414 10.089160177720427 7.270232195899881 0 0 0
2404 0 2 -1 1.4794948978462445 9.98831258610795 13.034430015883697 0 0 0
196 0 2 -1 1.5605715896101848 15.964715318404464 1.588947348889008 0 0 0
1348 0 2 -1 1.6013939893827467 15.937666890580822 7.276401232638773 0 0 0
2500 0 2 -1 1.6456734868723761 15.9413230728771 12.991881445605689 0 0 0
12 0 2 -1 7.180036446431357 4.434901921332731 1.1661353271666344 0 0 0
1164 0 2 -1 7.32283409631728 4.3371206355953795 7.2004997536232995 0 0 0
2316 0 2 -1 7.143682491478593 4.425859312563993 13.079427825299597 0 0 0
108 0 2 -1 7.174024766080167 10.301872437804063 1.348648493838136 0 0 0
1260 0 2 -1 7.240681128262843 10.080779475835403 7.168348063947061 0 0 0
2412 0 2 -1 7.134496543018718 10.02912673692943 13.065953156959884 0 0 0
204 0 2 -1 7.238787652667015 15.953356819943673 1.4929498926530755 0 0 0
1356 0 2 -1 7.24878094810393 15.96354109164392 7.260175676824899 0 0 0
2508 0 2 -1 7.362742226554031 15.961117427661527 12.877096742539733 0 0 0
20 0 2 -1 13.043919427241635 4.382865661166052 1.6779801972518495 0 0 0
1172 0 2 -1 13.042886685763243 4.297323328247302 7.296282777227358 0 0 0
2324 0 2 -1 13.149692299408244 4.341392119946885 13.04549204899353 0 0 0
116 0 2 -1 13.201853358709965 10.114312491593624 1.574111336167158 0 0 0
1268 0 2 -1 13.10549215258936 10.24201046039323 7.26130628718837 0 0 0
2420 0 2 -1 13.115422098538042 10.214763261342616 12.950725467445677 0 0 0
212 0 2 -1 12.920534853705984 15.986045290060376 1.5456649998093692 0 0 0
1364 0 2 -1 13.244577234888483 16.091648665082072 7.109166210606633 0 0 0
2516 0 2 -1 13.066816500468763 15.89117221789196 12.85201622482113 0 0 0
3 0 1 1 4.232538903111086 4.429354957127575 1.1756416602258213 0 0 0
1155 0 1 1 4.264591834448815 4.448997767650659 7.274049030266483 0 0 0
2307 0 1 1 4.174882450685794 4.3380243663066285 13.071511470122092 0 0 0
99 0 1 1 4.165928444421765 10.254423036979912 1.4672629046063195 0 0 0
1251 0 1 1 4.382850263981921 10.243766877940583 7.0635266411084325 0 0 0
2403 0 1 1 4.33076797412959 10.137680301593639 12.98770151809508 0 0 0
195 0 1 1 4.288545154236756 15.973191605879274 1.4952229232112564 0 0 0
1347 0 1 1 4.374388974298458 15.977637266985587 7.210081140483208 0 0 0
2499 0 1 1 4.528582237857753 15.820640154330535 12.96702904770792 0 0 0
11 0 1 1 10.12947121743345 4.641448660987007 1.3004510644998337 0 0 0
1163 0 1 1 10.255344899657743 4.441959369579439 7.316163995133745 0 0 0
2315 0 1 1 10.349235720482111 4.027222006063773 12.98527438003628 0 0 0
107 0 1 1 10.093770515271391 10.21484199375229 1.3242942994762732 0 0 0
1259 0 1 1 9.983886210621922 10.203641238547466 7.188773718494029 0 0 0
2411 0 1 1 10.109536223550764 10.066035003575143 13.018776808827711 0 0 0
203 0 1 1 10.127587849266346 15.796399790599322 1.4801688909398896 0 0 0
1355 0 1 1 10.337301258997494 16.181019668336972 7.196534706340503 0 0 0
2507 0 1 1 10.182628897221937 15.992508213250922 12.849150342847405 0 0 0
19 0 1 1 15.824613082654635 4.347976001061236 1.5837635192776705 0 0 0
1171 0 1 1 15.93801798751714 4.37024832331422 7.105294944412974 0 0 0
2323 0 1 1 15.973373328859408 4.461873985086726 13.07166884210069 0 0 0
115 0 1 1 15.995407241791225 10.04069546877082 1.2860413778371813 0 0 0
1267 0 1 1 16.11747841298466 10.269114092018473 7.231252300178017 0 0 0
2419 0 1 1 15.949844835758018 10.21928621383612 12.931298859470235 0 0 0
211 0 1 1 15.840453789873628 15.77266249302027 1.5475943264944347 0 0 0
1363 0 1 1 16.009019827296132 15.836018950083705 7.094585718113136 0 0 0
2515 0 1 1 15.842255791684776 15.77509617000565 12.953474972707667 0 0 0
6 0 2 -1 1.4467788208280377 1.3319689376349004 4.135381665809029 0 0 0
1158 0 2 -1 1.2495162637496982 1.4100379791594893 9.994576351390158 0 0 0
2310 0 2 -1 1.4394072724984703 1.2755331497719051 15.866398113105836 0 0 0
102 0 2 -1 1.5726813332238208 7.204742698065909 4.298560033146623 0 0 0
1254 0 2 -1 1.4897708214371956 7.065642737395838 10.113608842957152 0 0 0
2406 0 2 -1 1.2246151492030581 7.235563505663826 16.06548521376213 0 0 0
198 0 2 -1 1.4046580182573645 12.909678483755822 4.50482405967183 0 0 0
1350 0 2 -1 1.406527419143878 13.095457240374998 10.275456934710421 0 0 0
2502 0 2 -1 1.3219620076280436 13.114254271481805 15.704693480937078 0 0 0
14 0 2 -1 7.2744016024393785 1.348415853844729 4.243198235262557 0 0 0
1166 0 2 -1 7.24263776675234 1.7064667910240003 10.209167898880473 0 0 0
2318 0 2 -1 7.039370195043194 1.3030900681683835 15.84713227916203 0 0 0
110 0 2 -1 7.235358560144044 7.332716913185453 4.295803233222109 0 0 0
1262 0 2 -1 7.454638425103374 7.458411102997914 10.201173139328834 0 0 0
2414 0 2 -1 7.09273435620028 7.418412375914887 15.895681045762892 0 0 0
206 0 2 -1 7.232536965816203 12.900874900562602 4.389194726115326 0 0 0
1358 0 2 -1 7.166710687819826 12.92878317062325 10.203280933913042 0 0 0
2510 0 2 -1 7.2337749285024 13.049134572949681 15.755972641291144 0 0 0
22 0 2 -1 12.828670743241721 1.4895034030222158 4.474729750477627 0 0 0
1174 0 2 -1 12.909020919632724 1.502773085842275 10.246413946607154 0 0 0
2326 0 2 -1 12.890745057751776 1.114657933476936 16.005598401073733 0 0 0
118 0 2 -1 13.141912724762728 7.257392031452801 4.417779346546239 0 0 0
1270 0 2 -1 13.102615831240698 7.223466806024087 10.062504677755493 0 0 0
2422 0 2 -1 12.896857771864479 7.183740470849091 15.833831938559092 0 0 0
214 0 2 -1 12.960734852934415 13.05906993762807 4.289604196399906 0 0 0
1366 0 2 -1 13.108260916699317 13.160080222823396 10.008682802479308 0 0 0
2518 0 2 -1 12.979787126821764 13.08375352159296 15.948405419393902 0 0 0
5 0 1 1 4.1067853644320635 1.5352294747984125 4.306284250263907 0 0 0
1157 0 1 1 4.267211782170143 1.4770028081186832 9.95547065913078 0 0 0
2309 0 1 1 4.290504934231623 1.3961073917563669 15.759971983038238 0 0 0
101 0 1 1 4.463663657672903 7.279330952113953 4.454357796826023 0 0 0
1253 0 1 1 4.368270387406308 7.3133995532307905 10.294615957993766 0 0 0
2405 0 1 1 4.081088654834998 7.419601117884755 15.907542554271377 0 0 0
197 0 1 1 4.38232421163423 12.947008362892106 4.344367848967485 0 0 0
1349 0 1 1 4.252923397528439 12.905140754908503 10.249241523766667 0 0 0
2501 0 1 1 4.320243798325159 13.11617805412544 15.92031489291657 0 0 0
13 0 1 1 10.144384740910224 1.4589039421795038 4.358722823034888 0 0 0
1165 0 1 1 10.086272958330467 1.3785160521808268 10.173283017106954 0 0 0
2317 0 1 1 10.07780384586415 1.3245545077724883 15.76576986459064 0 0 0
109 0 1 1 10.069275457119643 7.263485980821761 4.326275562360453 0 0 0
1261 0 1 1 10.23920950057359 7.323341393934277 10.28336838277767 0 0 0
2413 0 1 1 10.118420769388376 6.939522904506774 15.922677623412193 0 0 0
205 0 1 1 10.158515173883236 13.048744382243727 4.429694099794203 0 0 0
1357 0 1 1 10.146266017635298 13.04511945865947 9.957333929339551 0 0 0
2509 0 1 1 10.1198754702599 13.013077190656695 15.766030955922995 0 0 0
21 0 1 1 15.871115422354903 1.4728168939944934 4.306445336627887 0 0 0
1173 0 1 1 15.878538413926796 1.4198702595496777 9.998196193481002 0 0 0
2325 0 1 1 15.795620178848534 1.3354378258926487 16.04641740861512 0 0 0
117 0 1 1 15.858771008138286 7.606889968903048 4.412822224241216 0 0 0
1269 0 1 1 15.804799225488386 7.34159087047356 10.141976855549153 0 0 0
2421 0 1 1 16.08800963539953 7.2096787734644305 15.84603326666372 0 0 0
213 0 1 1 15.909020023687079 13.027769987548458 4.308934383703757 0 0 0
1365 0 1 1 15.944509186945377 12.955272537862685 10.093375397547025 0 0 0
2517 0 1 1 15.827681595517017 12.948018076332199 15.814007205855285 0 0 0
7 0 1 1 1.4729207734523122 4.2632199525428085 4.097216854508814 0 0 0
1159 0 1 1 1.3182991161044904 4.259024884370834 9.978240969855937 0 0 0
2311 0 1 1 1.3940467364451807 4.375959170887673 15.997726038474879 0 0 0
103 0 1 1 1.4694599194734634 9.97252677495641 4.353178294663402 0 0 0
1255 0 1 1 1.4379665151183494 10.154921742356489 9.962057948860059 0 0 0
2407 0 1 1 1.542228911814811 10.304181880663949 15.773393684967797 0 0 0
199 0 1 1 1.5228177387658957 15.888203990887657 4.529407216586572 0 0 0
1351 0 1 1 1.6291796230371163 15.931956405070828 10.262936371478176 0 0 0
2503 0 1 1 1.4814658191855574 15.932445326984794 15.795342225433245 0 0 0
15 0 1 1 7.245678855873767 4.329572630856538 4.270886393239589 0 0 0
1167 0 1 1 7.27941469122928 4.397490686146222 10.309622229893266 0 0 0
2319 0 1 1 7.249503657244244 4.535981989799518 15.984535954362011 0 0 0
111 0 1 1 7.38043383980649 10.025113203371697 4.224583302610738 0 0 0
1263 0 1 1 7.479631269383069 10.060794226691897 10.036337461739512 0 0 0
2415 0 1 1 7.246634544349316 10.185722813858321 16.023499794654946 0 0 0
207 0 1 1 7.2208002900644646 15.924378084910641 4.339542387219619 0 0 0
1359 0 1 1 7.441797728747289 15.863368883752088 10.061604317278968 0 0 0
2511 0 1 1 7.348433126211868 15.950871987689872 15.768719955523153 0 0 0
23 0 1 1 13.003791524807523 4.355725602030414 4.519302420033597 0 0 0
1175 0 1 1 12.99692383114755 4.2855093384977545 10.237504325910589 0 0 0
2327 0 1 1 13.036468207295068 4.403606321109018 15.934381283559029 0 0 0
119 0 1 1 13.226338209954564 10.10061879740767 4.465145342883804 0 0 0
1271 0 1 1 13.16181072377661 10.263623799504106 10.126464866723786 0 0 0
2423 0 1 1 12.789155595553531 10.149259256485507 15.801973503230705 0 0 0
215 0 1 1 12.971770471025671 15.922426243584288 4.233306091475207 0 0 0
1367 0 1 1 13.095518705128688 16.05027709815577 9.923060281065945 0 0 0
2519 0 1 1 13.06247929779462 15.931504191682066 15.747814013662607 0 0 0
8 0 2 -1 4.2545348188738075 4.309239883216289 4.339575018477915 0 0 0
1160 0 2 -1 4.364662812592594 4.473100210617325 10.214103576199514 0 0 0
2312 0 2 -1 4.338639120083898 4.27631859657904 15.810109724111127 0 0 0
104 0 2 -1 4.256172365031356 10.111477601552213 4.315572073213923 0 0 0
1256 0 2 -1 4.2159907806283 10.187898836284342 9.956312481616758 0 0 0
2408 0 2 -1 4.168497532410919 10.166638265012486 16.001565331416668 0 0 0
200 0 2 -1 4.4885556697695215 16.02429607660817 4.428633300543703 0 0 0
1352 0 2 -1 4.421576149276163 15.91376954721891 10.293984050047902 0 0 0
2504 0 2 -1 4.527504047577171 15.857538093361484 15.932856008714014 0 0 0
16 0 2 -1 9.946182808280179 4.514343787070559 4.350765706997609 0 0 0
1168 0 2 -1 10.120744096537134 4.38905406286531 10.131493828421313 0 0 0
2320 0 2 -1 10.093963884967868 4.088513741773419 15.839367988398255 0 0 0
112 0 2 -1 10.268463186498106 10.15735408515775 4.157154901200062 0 0 0
1264 0 2 -1 10.386281041915836 10.261903359771972 10.176683104402079 0 0 0
2416 0 2 -1 10.139710008299943 9.833814693514148 15.678626032902928 0 0 0
208 0 2 -1 10.16374066791757 16.02120304342796 4.2767305086757474 0 0 0
1360 0 2 -1 10.378382411655457 15.854081159155019 10.016576131677521 0 0 0
2512 0 2 -1 10.146086461118273 15.812124029872825 15.77374439231042 0 0 0
24 0 2 -1 15.948118308964402 4.353490394105284 4.274994422792658 0 0 0
1176 0 2 -1 15.899168005599119 4.259219009428902 10.042815109317846 0 0 0
2328 0 2 -1 15.938197026506623 4.323794429545081 15.942874354206172 0 0 0
120 0 2 -1 16.1054324806432 10.29492901784719 4.355117513589248 0 0 0
1272 0 2 -1 15.975504228497268 10.174339703953017 10.220149104807314 0 0 0
2424 0 2 -1 15.852911621706966 10.121643169029644 16.007462841038915 0 0 0
216 0 2 -1 15.851248651679477 15.871128995790844 4.283358197195018 0 0 0
1368 0 2 -1 15.821590930079656 15.765069977230793 9.993184890610177 0 0 0
2520 0 2 -1 15.922756836259312 15.73535069134604 15.79465352194579 0 0 0
25 0 1 1 18.73022055250102 1.4420231313859313 1.3646925914308201 0 0 0
1177 0 1 1 18.685509883841757 1.3435317471717587 7.190004806247238 0 0 0
2329 0 1 1 19.017059499841665 1.457495974967389 12.965766622901157 0 0 0
121 0 1 1 18.85816675498754 7.250738638719691 1.4235384293842135 0 0 0
1273 0 1 1 18.767073161312428 7.262693856755132 7.13798956644421 0 0 0
2425 0 1 1 18.88779221671934 7.010978024827871 12.861859873721873 0 0 0
217 0 1 1 18.8382627560426 13.281398405195432 1.4042838612840916 0 0 0
1369 0 1 1 18.966438116089552 13.145125594225268 6.89153987973762 0 0 0
2521 0 1 1 18.762839933351266 13.0780580024531 13.07252069579041 0 0 0
33 0 1 1 24.417225369864127 1.4791917231453384 1.4429490606803765 0 0 0
1185 0 1 1 24.632204778489914 1.5451722992226924 7.15366733283057 0 0 0
2337 0 1 1 24.52901041842805 1.5038790478723456 13.049927599340187 0 0 0
129 0 1 1 24.489226957563854 7.2718308194407815 1.5867858178267413 0 0 0
1281 0 1 1 24.668678270202772 7.2721833154974105 7.0985360276200336 0 0 0
2433 0 1 1 24.71103458695544 7.190092950987114 13.1246051456468 0 0 0
225 0 1 1 24.63532223161202 13.212833396141397 1.3869130653747486 0 0 0
1377 0 1 1 24.584445706593215 12.98327763537178 7.1670739081603285 0 0 0
2529 0 1 1 24.489071158880588 12.989234076744228 13.277970910227175 0 0 0
41 0 1 1 30.3869811094836 1.5254719003697494 1.3406865503610348 0 0 0
1193 0 1 1 30.307244125135522 1.5374224722868297 7.300158616729325 0 0 0
2345 0 1 1 30.293033163954426 1.3498385089348455 12.86495989664008 0 0 0
137 0 1 1 30.508819151864476 7.229589707367593 1.3430723642294722 0 0 0
1289 0 1 1 30.304263395449603 7.3020553629796785 7.067159276454342 0 0 0
2441 0 1 1 30.333704665022715 7.083392641688282 12.962644217991352 0 0 0
233 0 1 1 30.37487167210054 12.903665597962245 1.457458102137153 0 0 0
1385 0 1 1 30.316168972909885 12.98119429000687 7.2170410386466735 0 0 0
2537 0 1 1 30.59427347898789 13.18003510744368 13.13423994141809 0 0 0
26 0 2 -1 21.603832285138203 1.3259443959748238 1.308002215933863 0 0 0
1178 0 2 -1 21.799894585123567 1.5990563149820742 7.320945801590079 0 0 0
2330 0 2 -1 21.877901750232937 1.4856621532396508 12.967567079942858 0 0 0
122 0 2 -1 21.479092956808397 7.202092760586852 1.3518555602984195 0 0 0
1274 0 2 -1 21.80047473180429 7.156628912993204 7.168250199237474 0 0 0
2426 0 2 -1 21.76187695641681 7.094241698192159 12.992686751055226 0 0 0
218 0 2 -1 21.817324416439302 13.35279560678866 1.4290955273908363 0 0 0
1370 0 2 -1 21.761941590903703 13.059465099033229 7.054008139077944 0 0 0
2522 0 2 -1 21.680407605264012 12.849463369310067 13.045763860287122 0 0 0
34 0 2 -1 27.382797085760963 1.490162465238362 1.2984285150927102 0 0 0
1186 0 2 -1 27.342785389744506 1.5899318202007573 7.202923092856883 0 0 0
2338 0 2 -1 27.440216117559164 1.4985120147456599 13.142023927993392 0 0 0
130 0 2 -1 27.363076295269046 7.357808819589121 1.530072986255945 0 0 0
1282 0 2 -1 27.543043621162525 7.122504850186519 7.025291762084661 0 0 0
2434 0 2 -1 27.57676899735297 7.157516175759312 13.075376894020355 0 0 0
226 0 2 -1 27.51759231747791 12.973537261152815 1.291268157293441 0 0 0
1378 0 2 -1 27.600524725421703 13.089358524026158 7.398679637622078 0 0 0
2530 0 2 -1 27.408365306469975 13.16055411910512 13.007795716244393 0 0 0
42 0 2 -1 33.224837246791004 1.4793958490685941 1.3571950162633897 0 0 0
1194 0 2 -1 33.37565415133412 1.2211026355824606 7.146732621970104 0 0 0
2346 0 2 -1 33.10550092118329 1.3560422965059367 12.942713550757254 0 0 0
138 0 2 -1 33.28692879335383 7.139016479079437 1.4932394130781594 0 0 0
1290 0 2 -1 33.06163215195291 7.204544881828665 7.060893779600948 0 0 0
2442 0 2 -1 33.229608571067224 7.174973651555546 12.896104843244682 0 0 0
234 0 2 -1 33.31766600553759 12.846917423124486 1.3624683883623863 0 0 0
1386 0 2 -1 33.350768766925334 13.117982212873457 7.04195716445312 0 0 0
2538 0 2 -1 33.417679658972276 12.969249982294839 13.021523935617527 0 0 0
28 0 2 -1 18.600850784726 4.392920479604133 1.4005057531360783 0 0 0
1180 0 2 -1 18.84327755916897 4.364204617614881 7.229574391499068 0 0 0
2332 0 2 -1 18.837394133185178 4.350113041982266 13.039162512084634 0 0 0
124 0 2 -1 18.782186152742966 10.120731471656105 1.394179863027059 0 0 0
1276 0 2 -1 18.831008442574824 10.217893605009701 7.0415753183930825 0 0 0
2428 0 2 -1 18.878517997116827 9.932513408123551 13.118886063451189 0 0 0
220 0 2 -1 18.681700184307907 16.09699118550786 1.447106900868961 0 0 0
1372 0 2 -1 18.857514454484615 15.93154164828779 7.0451027526326575 0 0 0
2524 0 2 -1 18.847868105235555 15.84441081326719 12.851008172832616 0 0 0
36 0 2 -1 24.455021375434235 4.401201950724134 1.5146541934573363 0 0 0
1188 0 2 -1 24.43867459335208 4.405067766381014 7.209217246210762 0 0 0
2340 0 2 -1 24.618145524415088 4.366361676380932 13.157742761742169 0 0 0
132 0 2 -1 24.478525090186267 10.300332271826631 1.5469343916467762 0 0 0
1284 0 2 -1 24.597703658633012 10.262256196138717 7.192936010941854 0 0 0
2436 0 2 -1 24.559564397062893 10.032024710196072 13.165683815087512 0 0 0
228 0 2 -1 24.74409744007594 15.944721833129263 1.2738223515887102 0 0 0
1380 0 2 -1 24.574277295614706 15.905635510064156 7.353361401007158 0 0 0
2532 0 2 -1 24.45131065346689 15.877797406334963 12.938062598432753 0 0 0
44 0 2 -1 30.45891047536995 4.3361511447161325 1.4136165437888286 0 0 0
1196 0 2 -1 30.355362822914827 4.3173340954132895 7.298607527594462 0 0 0
2348 0 2 -1 30.225151057563743 4.357031926281719 12.849212427185918 0 0 0
140 0 2 -1 30.324653786384246 10.072234759146708 1.3389448246995272 0 0 0
1292 0 2 -1 30.159422745211813 10.123093794613492 7.249953707271706 0 0 0
2444 0 2 -1 30.262981910108866 10.014585861576927 13.050566388266809 0 0 0
236 0 2 -1 30.274046083217346 15.584817239942758 1.2218138890920391 0 0 0
1388 0 2 -1 30.22735776782134 15.929881743329235 7.031112438142691 0 0 0
2540 0 2 -1 30.486431211806565 15.864025317977374 12.908015387099887 0 0 0
27 0 1 1 21.409057895787935 4.232466107326999 1.4252444874607009 0 0 0
1179 0 1 1 21.619069475762846 4.407737710653653 7.211038279983238 0 0 0
2331 0 1 1 21.759446888061735 4.340861654143233 13.109831462846529 0 0 0
123 0 1 1 21.78920820483948 10.37042542221222 1.362850959042361 0 0 0
1275 0 1 1 21.745538967952662 10.240195425704389 7.179162170904954 0 0 0
2427 0 1 1 21.572571244651716 10.050207851268876 12.997738017192862 0 0 0
219 0 1 1 21.865397175764112 16.019732608756833 1.4710496344168424 0 0 0
1371 0 1 1 21.62416706727248 15.870730383783323 7.326984411274402 0 0 0
2523 0 1 1 21.6548134846303 15.833057616220788 12.891684318677358 0 0 0
35 0 1 1 27.292626888544767 4.145957844071445 1.441283048312352 0 0 0
1187 0 1 1 27.50897573230534 4.3112307645087125 7.168628280236506 0 0 0
2339 0 1 1 27.43440588107621 4.301886745107082 12.820467428300084 0 0 0
131 0 1 1 27.364461924977398 10.108542501291865 1.3899007378633959 0 0 0
1283 0 1 1 27.457364161533867 10.037456779426533 7.468355044546246 0 0 0
2435 0 1 1 27.563164182733882 10.163882934841132 12.990360108972544 0 0 0
227 0 1 1 27.45866542095294 15.907351118966712 1.329650889692603 0 0 0
1379 0 1 1 27.38587886758185 15.896058749124942 7.251803318985655 0 0 0
2531 0 1 1 27.28895838303686 15.969032976981822 12.936007448223357 0 0 0
43 0 1 1 33.32258983862324 4.215862725460604 1.3854270589847448 0 0 0
1195 0 1 1 33.043927297199886 4.414470652682645 7.424830289067032 0 0 0
2347 0 1 1 33.148541822966145 4.259318708629693 13.054340711943059 0 0 0
139 0 1 1 33.298786611887174 9.957727296279073 1.25527853195904 0 0 0
1291 0 1 1 33.10148550141811 9.95282375049257 7.295017016010086 0 0 0
2443 0 1 1 33.2766720828676 10.183003505440361 12.958659417228002 0 0 0
235 0 1 1 33.10648930342106 15.78398886876722 1.3356986910024093 0 0 0
1387 0 1 1 33.132138805659515 15.820722315357072 7.123590848957772 0 0 0
2539 0 1 1 33.336287711493696 16.098055600549724 12.921684998492395 0 0 0
30 0 2 -1 18.879955245845498 1.697288219933209 4.225235547697984 0 0 0
1182 0 2 -1 18.800014913795035 1.5178928811861878 10.14270064023047 0 0 0
2334 0 2 -1 18.827370110833485 1.3540856615562404 15.893276043770026 0 0 0
126 0 2 -1 18.74036002970616 7.1613796979873445 4.400626595618682 0 0 0
1278 0 2 -1 18.979492955103154 7.2236659450234 10.149831771754073 0 0 0
2430 0 2 -1 18.9573504562397 7.285510068771093 15.83447932715653 0 0 0
222 0 2 -1 18.921190878099644 13.29110204688757 4.079948668279652 0 0 0
1374 0 2 -1 18.830642013620423 13.001744070606094 10.05593406817428 0 0 0
2526 0 2 -1 18.741488589061312 12.908225492855589 15.989490248860877 0 0 0
38 0 2 -1 24.4719438171949 1.4841083273900606 4.168816039938529 0 0 0
1190 0 2 -1 24.51050207786738 1.6545948337061702 10.184992905799113 0 0 0
2342 0 2 -1 24.577263303846166 1.2909705931691893 15.801260691352386 0 0 0
134 0 2 -1 24.53746526761549 7.287842056471243 4.319954651537969 0 0 0
1286 0 2 -1 24.71527395305737 7.196242742247567 10.000140211285308 0 0 0
2438 0 2 -1 24.625373092701388 7.122192120038582 15.94149876605758 0 0 0
230 0 2 -1 24.75324803260132 12.997732076249672 4.398786238569257 0 0 0
1382 0 2 -1 24.56628823207149 12.855718811292281 9.947250343698634 0 0 0
2534 0 2 -1 24.76073076085739 13.160935903328577 16.04433440639024 0 0 0
46 0 2 -1 30.2461204812577 1.3630240189764158 4.393442977221062 0 0 0
1198 0 2 -1 30.422088015658694 1.5204345247065962 10.181556513887925 0 0 0
2350 0 2 -1 30.218377562494556 1.45167848578519 15.747382515010969 0 0 0
142 0 2 -1 30.368966700839497 7.265524923833216 4.283178756975492 0 0 0
1294 0 2 -1 30.4883024647708 7.14777237039242 9.990790773439555 0 0 0
2446 0 2 -1 30.427504550913056 7.190839169824198 15.799553058771968 0 0 0
238 0 2 -1 30.292872293199512 13.0779205355323 4.234832001301842 0 0 0
1390 0 2 -1 30.216758975143307 12.880406133463259 10.122398819488147 0 0 0
2542 0 2 -1 30.316785011594025 13.014707533787345 15.991746075422979 0 0 0
29 0 1 1 21.745707646490796 1.6979277581015697 4.3517265426269205 0 0 0
1181 0 1 1 21.63486802307755 1.536919116495802 10.10061967041971 0 0 0
2333 0 1 1 21.628708927227372 1.345411464542441 15.93292145834665 0 0 0
125 0 1 1 21.549205659203892 7.366510547052746 4.183231007522275 0 0 0
1277 0 1 1 21.86387933235071 7.165765429100203 10.083179640403483 0 0 0
2429 0 1 1 21.734365258241187 7.213885513895268 15.796124998750093 0 0 0
221 0 1 1 21.891875377740455 13.127543096633902 4.260608305521796 0 0 0
1373 0 1 1 21.7998755422259 13.218909846798663 10.048998076208157 0 0 0
2525 0 1 1 21.56422889567566 12.957592966164361 16.278728711758216 0 0 0
37 0 1 1 27.440986560841967 1.5641680607851354 4.123156370039807 0 0 0
1189 0 1 1 27.697116530795547 1.5288104223954242 10.29369992321957 0 0 0
2341 0 1 1 27.445154666821924 1.5226726413012353 15.887423868680349 0 0 0
133 0 1 1 27.61546038824028 7.368715955042813 4.207959481890963 0 0 0
1285 0 1 1 27.523642068231613 6.981834556121762 10.105482446866459 0 0 0
2437 0 1 1 27.665251591720523 7.084708267998173 15.935488960734341 0 0 0
229 0 1 1 27.502964067243454 12.932892764064343 4.299876717275628 0 0 0
1381 0 1 1 27.428876054079765 12.915317070529692 10.2031566458809 0 0 0
2533 0 1 1 27.42025761264284 12.9827530084147 15.713430508818444 0 0 0
45 0 1 1 33.23157636497808 1.370765249471787 4.434103201461482 0 0 0
1197 0 1 1 33.301232725601906 1.4167756004877732 10.208601175761226 0 0 0
2349 0 1 1 33.33806841054092 1.1723258417475404 15.885863690570744 0 0 0
141 0 1 1 33.413010750515326 7.1539909044850445 4.322749132073024 0 0 0
1293 0 1 1 33.269374092052985 7.312562858575815 10.12152136443795 0 0 0
2445 0 1 1 33.11566960942217 7.070676924034368 15.825334295425197 0 0 0
237 0 1 1 33.280030765627814 13.131411895211395 4.239469213929021 0 0 0
1389 0 1 1 33.24008355735481 13.030606188503366 9.958572080324892 0 0 0
2541 0 1 1 33.19206260884337 13.022730878555752 16.018717715542998 0 0 0
31 0 1 1 18.564977888395884 4.437381773770771 4.47459964993769 0 0 0
1183 0 1 1 18.725930337268966 4.392446382002556 10.161079245898543 0 0 0
2335 0 1 1 18.809767489968987 4.519302829816548 15.814394629758054 0 0 0
127 0 1 1 18.824227782597077 10.210015561285223 4.2100688897969505 0 0 0
1279 0 1 1 18.901528525632177 10.154128650432012 10.139703423075265 0 0 0
2431 0 1 1 18.784306000032064 10.061294013097312 15.825046357339351 0 0 0
223 0 1 1 18.74708836384086 15.957770887282248 4.235587576009467 0 0 0
1375 0 1 1 18.62577281935107 15.932115652408958 9.975759584258155 0 0 0
2527 0 1 1 18.808181260136745 15.857543636125166 15.831150060315867 0 0 0
39 0 1 1 24.42145389725707 4.449341913737948 4.417240827176779 0 0 0
1191 0 1 1 24.576081165663556 4.4063014526633895 10.142564413070195 0 0 0
2343 0 1 1 24.680919929121366 4.251308208227594 15.838327524259686 0 0 0
135 0 1 1 24.701804402047703 10.225475705628986 4.396757098660923 0 0 0
1287 0 1 1 24.51984963974044 10.160029307268115 10.076654055578663 0 0 0
2439 0 1 1 24.670712149966064 10.07422652761485 15.969377855962778 0 0 0
231 0 1 1 24.549055597397977 16.012641870758905 4.45939823406766 0 0 0
1383 0 1 1 24.293264800311764 15.69081934678075 10.074881566636767 0 0 0
2535 0 1 1 24.40935232276474 15.959973834680829 15.96512672556976 0 0 0
47 0 1 1 30.51800879477235 4.223929033071009 4.22336787523077 0 0 0
1199 0 1 1 30.313308587061826 4.247397030171391 10.02608463312941 0 0 0
2351 0 1 1 30.44564882010979 4.24653712780172 15.931515479711146 0 0 0
143 0 1 1 30.29608360350125 10.218020590110362 4.141093748595643 0 0 0
1295 0 1 1 30.234042992672013 10.098304777888007 10.264703509499286 0 0 0
2447 0 1 1 30.260402615599926 10.047690572557089 15.879169385596814 0 0 0
239 0 1 1 30.363310768213985 15.941086183002538 4.0862963674974 0 0 0
1391 0 1 1 30.287167431931394 15.781679466631969 10.087433216987566 0 0 0
2543 0 1 1 30.482134211310814 15.797762300460914 15.9545159289036 0 0 0
32 0 2 -1 21.620688641423033 4.59135531584573 4.264360979177741 0 0 0
1184 0 2 -1 21.477344854932685 4.382439290449885 10.375154464189636 0 0 0
2336 0 2 -1 21.637895606626 4.209393060762147 15.827342382362469 0 0 0
128 0 2 -1 21.563488482724036 10.179512312056298 4.3245465964089025 0 0 0